"Z","Species","CS","Occ","Element","Iso_elec","Ground_Shells","Ground_Config","Ground_Level","Ionized_Level","IE","IE_uncertainty","References"
91,"Pa XXXIII",32,59,"Protactinium","Pr","Kr4d104f13","4f13","2F°7/2","4f12",1.22,0.06,"L582"
91,"Pa XXXIV",33,58,"Protactinium","Ce","Kr4d104f12","4f12",NA,"4f11 4I°15/2",1.3,0.06,"L582"
91,"Pa XXXV",34,57,"Protactinium","La","Kr4d104f11","4f11","4I°15/2","4f10 5I8",1.37,0.07,"L582"
91,"Pa XXXVI",35,56,"Protactinium","Ba","Kr4d104f10","4f10","5I8","4f9 6H°15/2",1.45,0.07,"L582"
91,"Pa XXXVII",36,55,"Protactinium","Cs","Kr4d104f9","4f9","6H°15/2","4f8 7F6",1.52,0.08,"L582"
91,"Pa XXXVIII",37,54,"Protactinium","Xe","Kr4d104f8","4f8","7F6","4f7 8S°7/2",1.6,0.08,"L582"
91,"Pa XXXIX",38,53,"Protactinium","I","Kr4d104f7","4f7","8S°7/2","4f6 7F0",1.67,0.08,"L582"
91,"Pa XL",39,52,"Protactinium","Te","Kr4d104f6","4f6","7F0","4f5 6H°5/2",1.76,0.09,"L582"
91,"Pa XLI",40,51,"Protactinium","Sb","Kr4d104f5","4f5","6H°5/2","4f4 5I4",1.83,0.09,"L582"
91,"Pa XLII",41,50,"Protactinium","Sn","Kr4d104f4","4f4","5I4","4f3 4I°9/2",1.91,0.1,"L582"
91,"Pa XLIII",42,49,"Protactinium","In","Kr4d104f3","4f3","4I°9/2","4f2 3H4",1.98,0.1,"L582"
91,"Pa XLIV",43,48,"Protactinium","Cd","Kr4d104f2","4f2","3H4","4f 2F°5/2",2.06,0.1,"L582"
91,"Pa XLV",44,47,"Protactinium","Ag","Kr4d104f","4f","2F°5/2","4d10 1S0",2.13,0.11,"L582"
91,"Pa XLVI",45,46,"Protactinium","Pd","Kr4d10","4d10","1S0","4d9 2D5/2",2.483,0.004,"L8672c99"
91,"Pa XLVII",46,45,"Protactinium","Rh","Kr4d9","4d9","2D5/2","4d8 3F4",2.55,0.004,"L8672c99"
91,"Pa XLVIII",47,44,"Protactinium","Ru","Kr4d8","4d8","3F4","4d7 4F9/2",2.62,0.004,"L8672c99"
91,"Pa XLIX",48,43,"Protactinium","Tc","Kr4d7","4d7","4F9/2","4d6 5D4",2.696,0.004,"L8672c99"
91,"Pa L",49,42,"Protactinium","Mo","Kr4d6","4d6","5D4","4d5 5/2",2.766,0.004,"L8672c99"
91,"Pa LI",50,41,"Protactinium","Nb","Kr4d5","4d5","5/2","4d4 5D0",2.837,0.004,"L8672c99"
91,"Pa LII",51,40,"Protactinium","Zr","Kr4d4","4d4","5D0","4d3 4F3/2",2.968,0.004,"L8672c99"
91,"Pa LIII",52,39,"Protactinium","Y","Kr4d3","4d3","4F3/2","4d2 3F2",3.04,0.004,"L8672c99"
91,"Pa LIV",53,38,"Protactinium","Sr","Kr4d2","4d2","3F2","4d 2D3/2",3.119,0.005,"L8672c99"
91,"Pa LV",54,37,"Protactinium","Rb","Kr4d","4d","2D3/2","4p6 1S0",3.193,0.005,"L8672c99"
91,"Pa LVI",55,36,"Protactinium","Kr","Ar3d104s24p6","4p6","1S0","4p5 2P°3/2",3.488,0.005,"L8672c99"
91,"Pa LVII",56,35,"Protactinium","Br","Ar3d104s24p5","4p5","2P°3/2","4p4 3P2",3.558,0.005,"L8672c99"
91,"Pa LVIII",57,34,"Protactinium","Se","Ar3d104s24p4","4p4","3P2","4p3°3/2",3.637,0.006,"L8672c99"
91,"Pa LIX",58,33,"Protactinium","As","Ar3d104s24p3","4p3","°3/2","4p2 3P0",3.709,0.006,"L8672c99"
91,"Pa LX",59,32,"Protactinium","Ge","Ar3d104s24p2","4p2","3P0","4p 2P°1/2",4.077,0.007,"L8672c99"
91,"Pa LXI",60,31,"Protactinium","Ga","Ar3d104s24p","4p","2P°1/2","4s2 1S0",4.161,0.01,"L8672c99"
91,"Pa LXII",61,30,"Protactinium","Zn","Ar3d104s2","4s2","1S0","4s 2S1/2",4.37,0.012,"L8672c99"
91,"Pa LXIII",62,29,"Protactinium","Cu","Ar3d104s","4s","2S1/2","3d10 1S0",4.454,0.005,"L10278"
91,"Pa LXIV",63,28,"Protactinium","Ni","Ar3d10","3d10","1S0","3d9 2D5/2",7.181,0.019,"L8672c99"
91,"Pa LXV",64,27,"Protactinium","Co","Ar3d9","3d9","2D5/2","3d8 3F4",7.341,0.024,"L8672c99"
91,"Pa LXVI",65,26,"Protactinium","Fe","Ar3d8","3d8","3F4","3d7 4F9/2",7.51,0.03,"L8672c99"
91,"Pa LXVII",66,25,"Protactinium","Mn","Ar3d7","3d7","4F9/2","3d6 4",7.69,0.04,"L8672c99"
91,"Pa LXVIII",67,24,"Protactinium","Cr","Ar3d6","3d6","4","3d5 5/2",7.87,0.04,"L8672c99"
91,"Pa LXIX",68,23,"Protactinium","V","Ar3d5","3d5","5/2","3d4 5D0",8.04,0.05,"L8672c99"
91,"Pa LXX",69,22,"Protactinium","Ti","Ar3d4","3d4","5D0","3d3 4F3/2",8.41,0.05,"L8672c99"
91,"Pa LXXI",70,21,"Protactinium","Sc","Ar3d3","3d3","4F3/2","3d2 3F2",8.59,0.06,"L8672c99"
91,"Pa LXXII",71,20,"Protactinium","Ca","Ar3d2","3d2","3F2","3d 2D3/2",8.78,0.06,"L8672c99"
91,"Pa LXXIII",72,19,"Protactinium","K","Ar3d","3d","2D3/2","3p6 1S0",8.96,0.07,"L8672c99"
91,"Pa LXXIV",73,18,"Protactinium","Ar","Ne3s23p6","3p6","1S0","3p5 2P°3/2",9.46,0.09,"L8672c99"
91,"Pa LXXV",74,17,"Protactinium","Cl","Ne3s23p5","3p5","2P°3/2","3p4 3P2",9.62,0.09,"L8672c99"
91,"Pa LXXVI",75,16,"Protactinium","S","Ne3s23p4","3p4","3P2","3p3 2P°3/2",9.79,0.1,"L8672c99"
91,"Pa LXXVII",76,15,"Protactinium","P","Ne3s23p3","3p3","2P°3/2","3p2 3P0",9.95,0.11,"L8672c99"
91,"Pa LXXVIII",77,14,"Protactinium","Si","Ne3s23p2","3p2","3P0","3p 2P°1/2",11.1,0.12,"L8672c99"
91,"Pa LXXIX",78,13,"Protactinium","Al","Ne3s23p","3p","2P°1/2","3s2 1S0",11.29,0.12,"L8672c99"
91,"Pa LXXX",79,12,"Protactinium","Mg","Ne3s2","3s2","1S0","3s 2S1/2",11.66,0.14,"L8672c99"
91,"Pa LXXXI",80,11,"Protactinium","Na","Ne3s","3s","2S1/2","2p6 1S0",11.84,0.15,"L8672c99"
91,"Pa LXXXII",81,10,"Protactinium","Ne","1s22s22p6","2p6","1S0","2p5 2P°3/2",24.66,0.16,"L8672c99"
91,"Pa LXXXIII",82,9,"Protactinium","F","1s22s22p5","2p5","2P°3/2","2p4 3P2",25.08,0.17,"L8672c99"
91,"Pa LXXXIV",83,8,"Protactinium","O","1s22s22p4","2p4","3P2","2p21/22p3/2 0,3/2°3/2",25.54,0.19,"L8672c99"
91,"Pa LXXXV",84,7,"Protactinium","N","1s22s22p3","2p21/22p3/2","0,3/2°3/2","2p2 3P0",25.97,0.2,"L8672c99"
91,"Pa LXXXVI",85,6,"Protactinium","C","1s22s22p2","2p2","3P0","2p 2P°1/2",30.23,0.22,"L8672c99"
91,"Pa LXXXVII",86,5,"Protactinium","B","1s22s22p","2p","2P°1/2","2s2 1S0",30.8,0.24,"L8672c99"
91,"Pa LXXXVIII",87,4,"Protactinium","Be","1s22s2","2s2","1S0","2s 2S1/2",31.52,0.25,"L8672c99"
91,"Pa LXXXIX",88,3,"Protactinium","Li","1s22s","2s","2S1/2","1s2 1S0",31.9716,6e-04,"L16264c99"
91,"Pa XC",89,2,"Protactinium","He","1s2","1s2","1S0","1s 2S1/2",126.2966,0.001,"L10054"
91,"Pa XCI",90,1,"Protactinium","H","1s","1s","2S1/2",NA,128.5071,0.0025,"L7188"
92,"U I",0,92,"Uranium","U","Rn5f36d7s2","5f36d7s2","5L°6","5f37s2 4I°9/2",0.00619405,6e-08,"L5494,L7765"
92,"U II",1,91,"Uranium","Pa","Rn5f37s2","5f37s2","4I°9/2","5f4 5I4",0.0116,4e-04,"L14620"
92,"U III",2,90,"Uranium","Th","Rn5f4","5f4","5I4","5f36p6 4I°9/2",0.0198,3e-04,"L14620"
92,"U IV",3,89,"Uranium","Ac","Rn5f3","5f36p6","4I°9/2","5f26p6 3H4",0.0367,0.001,"L14620"
92,"U V",4,88,"Uranium","Ra","Rn5f2","5f26p6","3H4","5f6p6 2F°5/2",0.046,0.0019,"L8672c99"
92,"U VI",5,87,"Uranium","Fr","Rn5f","5f6p6","2F°5/2","6p6 1S0",0.062,0.0016,"L14620"
92,"U VII",6,86,"Uranium","Rn","Hg6p6","6p6","1S0","6p5 2P°3/2",0.089,0.002,"L8672c99"
92,"U VIII",7,85,"Uranium","At","Hg6p5","6p5","2P°3/2","6p4 3P2",0.101,0.0021,"L8672c99"
92,"U IX",8,84,"Uranium","Po","Hg6p4","6p4","3P2","6p3 4S°3/2",0.116,0.0022,"L8672c99"
92,"U X",9,83,"Uranium","Bi","Hg6p3","6p3","4S°3/2","6p2 3P0",0.1289,0.0022,"L8672c99"
92,"U XI",10,82,"Uranium","Pb","Hg6p2","6p2","3P0","6p 2P°1/2",0.158,0.0024,"L8672c99"
92,"U XII",11,81,"Uranium","Tl","Hg6p","6p","2P°1/2","6s2 1S0",0.173,0.0025,"L8672c99"
92,"U XIII",12,80,"Uranium","Hg","Xe4f145d106s2","6s2","1S0","6s 2S1/2",0.21,0.003,"L8672c99"
92,"U XIV",13,79,"Uranium","Au","Xe4f145d106s","6s","2S1/2","5d10 1S0",0.227,0.003,"L8672c99"
92,"U XV",14,78,"Uranium","Pt","Xe4f145d10","5d10","1S0","5d9 2D5/2",0.323,0.003,"L8672c99"
92,"U XVI",15,77,"Uranium","Ir","Xe4f145d9","5d9","2D5/2","5d8 3F4",0.348,0.003,"L8672c99"
92,"U XVII",16,76,"Uranium","Os","Xe4f145d8","5d8","3F4","5d7 4F9/2",0.375,0.003,"L8672c99"
92,"U XVIII",17,75,"Uranium","Re","Xe4f145d7","5d7","4F9/2","5d6 5D4",0.402,0.003,"L8672c99"
92,"U XIX",18,74,"Uranium","W","Xe4f145d6","5d6","5D4","5d5 6S5/2",0.431,0.003,"L8672c99"
92,"U XX",19,73,"Uranium","Ta","Xe4f145d5","5d5","6S5/2","5d4 5D0",0.458,0.004,"L8672c99"
92,"U XXI",20,72,"Uranium","Hf","Xe4f145d4","5d4","5D0","5d3 4F3/2",0.497,0.004,"L8672c99"
92,"U XXII",21,71,"Uranium","Lu","Xe4f145d3","5d3","4F3/2","5d2 3F2",0.525,0.004,"L8672c99"
92,"U XXIII",22,70,"Uranium","Yb","Xe4f145d2","5d2","3F2","5d 2D3/2",0.557,0.004,"L8672c99"
92,"U XXIV",23,69,"Uranium","Tm","Xe4f145d","5d","2D3/2","4f14 1S0",0.585,0.004,"L8672c99"
92,"U XXV",24,68,"Uranium","Er","Xe4f14","4f14","1S0","4f145p5 2P°3/2",0.73,0.04,"L582"
92,"U XXVI",25,67,"Uranium","Ho","Cd4f145p5","4f145p5","2P°3/2","4f145p4 3P2",0.77,0.04,"L582"
92,"U XXVII",26,66,"Uranium","Dy","Cd4f145p4","4f145p4","3P2","4f145p3 2P°3/2",0.8,0.04,"L582"
92,"U XXVIII",27,65,"Uranium","Tb","Cd4f145p3","4f145p3","2P°3/2","4f145p2 3P0",0.84,0.04,"L582"
92,"U XXIX",28,64,"Uranium","Gd","Cd4f145p2","4f145p2","3P0","4f145p 2P°1/2",0.93,0.05,"L582"
92,"U XXX",29,63,"Uranium","Eu","Cd4f145p","4f145p","2P°1/2","4f14 1S0",0.97,0.05,"L582"
92,"U XXXI",30,62,"Uranium","Sm","Cd4f14","4f14","1S0","4f145s 2S1/2",1.07,0.05,"L582"
92,"U XXXII",31,61,"Uranium","Pm","Kr4d104f145s","4f145s","2S1/2","4f14 1S0",1.11,0.06,"L582"
92,"U XXXIII",32,60,"Uranium","Nd","Kr4d104f14","4f14","1S0","4f13 2F°7/2",1.21,0.06,"L582"
92,"U XXXIV",33,59,"Uranium","Pr","Kr4d104f13","4f13","2F°7/2","4f12",1.29,0.06,"L582"
92,"U XXXV",34,58,"Uranium","Ce","Kr4d104f12","4f12",NA,"4f11 4I°15/2",1.37,0.07,"L582"
92,"U XXXVI",35,57,"Uranium","La","Kr4d104f11","4f11","4I°15/2","4f10 5I8",1.44,0.07,"L582"
92,"U XXXVII",36,56,"Uranium","Ba","Kr4d104f10","4f10","5I8","4f9 6H°15/2",1.52,0.08,"L582"
92,"U XXXVIII",37,55,"Uranium","Cs","Kr4d104f9","4f9","6H°15/2","4f8 7F6",1.59,0.08,"L582"
92,"U XXXIX",38,54,"Uranium","Xe","Kr4d104f8","4f8","7F6","4f7 8S°7/2",1.67,0.08,"L582"
92,"U XL",39,53,"Uranium","I","Kr4d104f7","4f7","8S°7/2","4f6 7F0",1.75,0.09,"L582"
92,"U XLI",40,52,"Uranium","Te","Kr4d104f6","4f6","7F0","4f5 6H°5/2",1.83,0.09,"L582"
92,"U XLII",41,51,"Uranium","Sb","Kr4d104f5","4f5","6H°5/2","4f4 5I4",1.91,0.1,"L582"
92,"U XLIII",42,50,"Uranium","Sn","Kr4d104f4","4f4","5I4","4f3 4I°9/2",1.99,0.1,"L582"
92,"U XLIV",43,49,"Uranium","In","Kr4d104f3","4f3","4I°9/2","4f2 3H4",2.07,0.1,"L582"
92,"U XLV",44,48,"Uranium","Cd","Kr4d104f2","4f2","3H4","4f 2F°5/2",2.14,0.11,"L582"
92,"U XLVI",45,47,"Uranium","Ag","Kr4d104f","4f","2F°5/2","4d10 1S0",2.22,0.11,"L582"
92,"U XLVII",46,46,"Uranium","Pd","Kr4d10","4d10","1S0","4d9 2D5/2",2.578,0.004,"L8672c99"
92,"U XLVIII",47,45,"Uranium","Rh","Kr4d9","4d9","2D5/2","4d8 3F4",2.646,0.004,"L8672c99"
92,"U XLIX",48,44,"Uranium","Ru","Kr4d8","4d8","3F4","4d7 4F9/2",2.718,0.004,"L8672c99"
92,"U L",49,43,"Uranium","Tc","Kr4d7","4d7","4F9/2","4d6 5D4",2.794,0.004,"L8672c99"
92,"U LI",50,42,"Uranium","Mo","Kr4d6","4d6","5D4","4d5 5/2",2.867,0.004,"L8672c99"
92,"U LII",51,41,"Uranium","Nb","Kr4d5","4d5","5/2","4d4 5D0",2.938,0.004,"L8672c99"
92,"U LIII",52,40,"Uranium","Zr","Kr4d4","4d4","5D0","4d3 4F3/2",3.073,0.004,"L8672c99"
92,"U LIV",53,39,"Uranium","Y","Kr4d3","4d3","4F3/2","4d2 3F2",3.147,0.005,"L8672c99"
92,"U LV",54,38,"Uranium","Sr","Kr4d2","4d2","3F2","4d 2D3/2",3.228,0.005,"L8672c99"
92,"U LVI",55,37,"Uranium","Rb","Kr4d","4d","2D3/2","4p6 1S0",3.301,0.005,"L8672c99"
92,"U LVII",56,36,"Uranium","Kr","Ar3d104s24p6","4p6","1S0","4p5 2P°3/2",3.602,0.005,"L8672c99"
92,"U LVIII",57,35,"Uranium","Br","Ar3d104s24p5","4p5","2P°3/2","4p4 3P2",3.675,0.006,"L8672c99"
92,"U LIX",58,34,"Uranium","Se","Ar3d104s24p4","4p4","3P2","4p3°3/2",3.753,0.006,"L8672c99"
92,"U LX",59,33,"Uranium","As","Ar3d104s24p3","4p3","°3/2","4p2 3P0",3.827,0.007,"L8672c99"
92,"U LXI",60,32,"Uranium","Ge","Ar3d104s24p2","4p2","3P0","4p 2P°1/2",4.214,0.01,"L8672c99"
92,"U LXII",61,31,"Uranium","Ga","Ar3d104s24p","4p","2P°1/2","4s2 1S0",4.299,0.012,"L8672c99"
92,"U LXIII",62,30,"Uranium","Zn","Ar3d104s2","4s2","1S0","4s 2S1/2",4.513,0.015,"L8672c99"
92,"U LXIV",63,29,"Uranium","Cu","Ar3d104s","4s","2S1/2","3d10 1S0",4.598,0.005,"L10278"
92,"U LXV",64,28,"Uranium","Ni","Ar3d10","3d10","1S0","3d9 2D5/2",7.393,0.024,"L8672c99"
92,"U LXVI",65,27,"Uranium","Co","Ar3d9","3d9","2D5/2","3d8 3F4",7.55,0.03,"L8672c99"
92,"U LXVII",66,26,"Uranium","Fe","Ar3d8","3d8","3F4","3d7 4F9/2",7.73,0.04,"L8672c99"
92,"U LXVIII",67,25,"Uranium","Mn","Ar3d7","3d7","4F9/2","3d6 4",7.91,0.04,"L8672c99"
92,"U LXIX",68,24,"Uranium","Cr","Ar3d6","3d6","4","3d5 5/2",8.09,0.05,"L8672c99"
92,"U LXX",69,23,"Uranium","V","Ar3d5","3d5","5/2","3d4 5D0",8.26,0.05,"L8672c99"
92,"U LXXI",70,22,"Uranium","Ti","Ar3d4","3d4","5D0","3d3 4F3/2",8.65,0.06,"L8672c99"
92,"U LXXII",71,21,"Uranium","Sc","Ar3d3","3d3","4F3/2","3d2 3F2",8.83,0.06,"L8672c99"
92,"U LXXIII",72,20,"Uranium","Ca","Ar3d2","3d2","3F2","3d 2D3/2",9.03,0.07,"L8672c99"
92,"U LXXIV",73,19,"Uranium","K","Ar3d","3d","2D3/2","3p6 1S0",9.21,0.09,"L8672c99"
92,"U LXXV",74,18,"Uranium","Ar","Ne3s23p6","3p6","1S0","3p5 2P°3/2",9.72,0.09,"L8672c99"
92,"U LXXVI",75,17,"Uranium","Cl","Ne3s23p5","3p5","2P°3/2","3p4 3P2",9.87,0.1,"L8672c99"
92,"U LXXVII",76,16,"Uranium","S","Ne3s23p4","3p4","3P2","3p3 2P°3/2",10.04,0.11,"L8672c99"
92,"U LXXVIII",77,15,"Uranium","P","Ne3s23p3","3p3","2P°3/2","3p2 3P0",10.2,0.12,"L8672c99"
92,"U LXXIX",78,14,"Uranium","Si","Ne3s23p2","3p2","3P0","3p 2P°1/2",11.41,0.12,"L8672c99"
92,"U LXXX",79,13,"Uranium","Al","Ne3s23p","3p","2P°1/2","3s2 1S0",11.6,0.14,"L8672c99"
92,"U LXXXI",80,12,"Uranium","Mg","Ne3s2","3s2","1S0","3s 2S1/2",11.99,0.15,"L8672c99"
92,"U LXXXII",81,11,"Uranium","Na","Ne3s","3s","2S1/2","2p6 1S0",12.16,0.16,"L8672c99"
92,"U LXXXIII",82,10,"Uranium","Ne","1s22s22p6","2p6","1S0","2p5 2P°3/2",25.26,0.17,"L8672c99"
92,"U LXXXIV",83,9,"Uranium","F","1s22s22p5","2p5","2P°3/2","2p4 3P2",25.68,0.19,"L8672c99"
92,"U LXXXV",84,8,"Uranium","O","1s22s22p4","2p4","3P2","2p21/22p3/2 0,3/2°3/2",26.15,0.2,"L8672c99"
92,"U LXXXVI",85,7,"Uranium","N","1s22s22p3","2p21/22p3/2","0,3/2°3/2","2p2 3P0",26.59,0.22,"L8672c99"
92,"U LXXXVII",86,6,"Uranium","C","1s22s22p2","2p2","3P0","2p 2P°1/2",31.06,0.24,"L8672c99"
92,"U LXXXVIII",87,5,"Uranium","B","1s22s22p","2p","2P°1/2","2s2 1S0",31.64,0.25,"L8672c99"
92,"U LXXXIX",88,4,"Uranium","Be","1s22s2","2s2","1S0","2s 2S1/2",32.4,0.3,"L8672c99"
92,"U XC",89,3,"Uranium","Li","1s22s","2s","2S1/2","1s2 1S0",32.8365,6e-04,"L16264c99"
92,"U XCI",90,2,"Uranium","He","1s2","1s2","1S0","1s 2S1/2",129.5703,6e-04,"L12128"
92,"U XCII",91,1,"Uranium","H","1s","1s","2S1/2",NA,131.821,0.003,"L7188"
93,"Np I",0,93,"Neptunium","Np","Rn5f46d7s2","5f46d7s2","6L11/2","5f46d7s 7L5",0.00626554,2.5e-07,"L15992"
93,"Np II",1,92,"Neptunium","U","Rn5f46d7s","5f46d7s","7L5","5f5 6H°5/2",0.0115,4e-04,"L13741c99"
93,"Np III",2,91,"Neptunium","Pa","Rn5f5","5f5","6H°5/2","5f4 5I4",0.0197,4e-04,"L13741c99"
93,"Np IV",3,90,"Neptunium","Th","Rn5f4","5f4","5I4","5f36p6 4I°9/2",0.0338,4e-04,"L13741c99"
93,"Np V",4,89,"Neptunium","Ac","Rn5f3","5f36p6","4I°9/2","5f26p6 3H4",0.048,0.0019,"L8672c99"
93,"Np VI",5,88,"Neptunium","Ra","Rn5f2","5f26p6","3H4","5f6p6 2F°5/2",0.065,0.002,"L8672c99"
93,"Np VII",6,87,"Neptunium","Fr","Rn5f","5f6p6","2F°5/2","5f6p5",0.092,0.005,"L582"
93,"Np VIII",7,86,"Neptunium","Rn","Hg5f6p5","5f6p5",NA,"5f6p4°",0.107,0.005,"L582"
93,"Np IX",8,85,"Neptunium","At","Hg5f6p4","5f6p4","°","5f6p3",0.121,0.006,"L582"
93,"Np X",9,84,"Neptunium","Po","Hg5f6p3","5f6p3",NA,"5f6p2°",0.136,0.007,"L582"
93,"Np XI",10,83,"Neptunium","Bi","Hg5f6p2","5f6p2","°","6p2 3P0",0.151,0.008,"L582"
93,"Np XII",11,82,"Neptunium","Pb","Hg6p2","6p2","3P0","6p 2P°1/2",0.179,0.0025,"L8672c99"
93,"Np XIII",12,81,"Neptunium","Tl","Hg6p","6p","2P°1/2","6s2 1S0",0.196,0.003,"L8672c99"
93,"Np XIV",13,80,"Neptunium","Hg","Xe4f145d106s2","6s2","1S0","6s 2S1/2",0.233,0.003,"L8672c99"
93,"Np XV",14,79,"Neptunium","Au","Xe4f145d106s","6s","2S1/2","5d10 1S0",0.252,0.003,"L8672c99"
93,"Np XVI",15,78,"Neptunium","Pt","Xe4f145d10","5d10","1S0","5d9 2D5/2",0.355,0.003,"L8672c99"
93,"Np XVII",16,77,"Neptunium","Ir","Xe4f145d9","5d9","2D5/2","5d8 3F4",0.382,0.003,"L8672c99"
93,"Np XVIII",17,76,"Neptunium","Os","Xe4f145d8","5d8","3F4","5d7 4F9/2",0.408,0.003,"L8672c99"
93,"Np XIX",18,75,"Neptunium","Re","Xe4f145d7","5d7","4F9/2","5d6 5D4",0.438,0.003,"L8672c99"
93,"Np XX",19,74,"Neptunium","W","Xe4f145d6","5d6","5D4","5d5 6S5/2",0.466,0.004,"L8672c99"
93,"Np XXI",20,73,"Neptunium","Ta","Xe4f145d5","5d5","6S5/2","5d4 5D0",0.495,0.004,"L8672c99"
93,"Np XXII",21,72,"Neptunium","Hf","Xe4f145d4","5d4","5D0","5d3 4F3/2",0.535,0.004,"L8672c99"
93,"Np XXIII",22,71,"Neptunium","Lu","Xe4f145d3","5d3","4F3/2","5d2 3F2",0.565,0.004,"L8672c99"
93,"Np XXIV",23,70,"Neptunium","Yb","Xe4f145d2","5d2","3F2","5d 2D3/2",0.596,0.004,"L8672c99"
93,"Np XXV",24,69,"Neptunium","Tm","Xe4f145d","5d","2D3/2","4f14 1S0",0.626,0.004,"L8672c99"
93,"Np XXVI",25,68,"Neptunium","Er","Xe4f14","4f14","1S0","4f145p5 2P°3/2",0.77,0.04,"L582"
93,"Np XXVII",26,67,"Neptunium","Ho","Cd4f145p5","4f145p5","2P°3/2","4f145p4 3P2",0.81,0.04,"L582"
93,"Np XXVIII",27,66,"Neptunium","Dy","Cd4f145p4","4f145p4","3P2","4f145p3 2P°3/2",0.85,0.04,"L582"
93,"Np XXIX",28,65,"Neptunium","Tb","Cd4f145p3","4f145p3","2P°3/2","4f145p2 3P0",0.88,0.04,"L582"
93,"Np XXX",29,64,"Neptunium","Gd","Cd4f145p2","4f145p2","3P0","4f145p 2P°1/2",0.98,0.05,"L582"
93,"Np XXXI",30,63,"Neptunium","Eu","Cd4f145p","4f145p","2P°1/2","4f14 1S0",1.02,0.05,"L582"
93,"Np XXXII",31,62,"Neptunium","Sm","Cd4f14","4f14","1S0","4f145s 2S1/2",1.13,0.06,"L582"
93,"Np XXXIII",32,61,"Neptunium","Pm","Kr4d104f145s","4f145s","2S1/2","4f14 1S0",1.17,0.06,"L582"
93,"Np XXXIV",33,60,"Neptunium","Nd","Kr4d104f14","4f14","1S0","4f13 2F°7/2",1.28,0.06,"L582"
93,"Np XXXV",34,59,"Neptunium","Pr","Kr4d104f13","4f13","2F°7/2","4f12",1.36,0.07,"L582"
93,"Np XXXVI",35,58,"Neptunium","Ce","Kr4d104f12","4f12",NA,"4f11 4I°15/2",1.43,0.07,"L582"
93,"Np XXXVII",36,57,"Neptunium","La","Kr4d104f11","4f11","4I°15/2","4f10 5I8",1.51,0.07,"L582"
93,"Np XXXVIII",37,56,"Neptunium","Ba","Kr4d104f10","4f10","5I8","4f9 6H°15/2",1.59,0.08,"L582"
93,"Np XXXIX",38,55,"Neptunium","Cs","Kr4d104f9","4f9","6H°15/2","4f8 7F6",1.67,0.08,"L582"
93,"Np XL",39,54,"Neptunium","Xe","Kr4d104f8","4f8","7F6","4f7 8S°7/2",1.74,0.09,"L582"
93,"Np XLI",40,53,"Neptunium","I","Kr4d104f7","4f7","8S°7/2","4f6 7F0",1.82,0.09,"L582"
93,"Np XLII",41,52,"Neptunium","Te","Kr4d104f6","4f6","7F0","4f5 6H°5/2",1.91,0.1,"L582"
93,"Np XLIII",42,51,"Neptunium","Sb","Kr4d104f5","4f5","6H°5/2","4f4 5I4",1.99,0.1,"L582"
93,"Np XLIV",43,50,"Neptunium","Sn","Kr4d104f4","4f4","5I4","4f3 4I°9/2",2.07,0.1,"L582"
93,"Np XLV",44,49,"Neptunium","In","Kr4d104f3","4f3","4I°9/2","4f2 3H4",2.14,0.11,"L582"
93,"Np XLVI",45,48,"Neptunium","Cd","Kr4d104f2","4f2","3H4","4f 2F°5/2",2.23,0.11,"L582"
93,"Np XLVII",46,47,"Neptunium","Ag","Kr4d104f","4f","2F°5/2","4d10 1S0",2.31,0.11,"L582"
93,"Np XLVIII",47,46,"Neptunium","Pd","Kr4d10","4d10","1S0","4d9 2D5/2",2.675,0.004,"L8672c99"
93,"Np XLIX",48,45,"Neptunium","Rh","Kr4d9","4d9","2D5/2","4d8 3F4",2.745,0.004,"L8672c99"
93,"Np L",49,44,"Neptunium","Ru","Kr4d8","4d8","3F4","4d7 4F9/2",2.817,0.004,"L8672c99"
93,"Np LI",50,43,"Neptunium","Tc","Kr4d7","4d7","4F9/2","4d6 5D4",2.894,0.004,"L8672c99"
93,"Np LII",51,42,"Neptunium","Mo","Kr4d6","4d6","5D4","4d5 5/2",2.969,0.004,"L8672c99"
93,"Np LIII",52,41,"Neptunium","Nb","Kr4d5","4d5","5/2","4d4 5D0",3.041,0.004,"L8672c99"
93,"Np LIV",53,40,"Neptunium","Zr","Kr4d4","4d4","5D0","4d3 4F3/2",3.181,0.005,"L8672c99"
93,"Np LV",54,39,"Neptunium","Y","Kr4d3","4d3","4F3/2","4d2 3F2",3.255,0.005,"L8672c99"
93,"Np LVI",55,38,"Neptunium","Sr","Kr4d2","4d2","3F2","4d 2D3/2",3.338,0.005,"L8672c99"
93,"Np LVII",56,37,"Neptunium","Rb","Kr4d","4d","2D3/2","4p6 1S0",3.413,0.005,"L8672c99"
93,"Np LVIII",57,36,"Neptunium","Kr","Ar3d104s24p6","4p6","1S0","4p5 2P°3/2",3.718,0.006,"L8672c99"
93,"Np LIX",58,35,"Neptunium","Br","Ar3d104s24p5","4p5","2P°3/2","4p4 3P2",3.792,0.006,"L8672c99"
93,"Np LX",59,34,"Neptunium","Se","Ar3d104s24p4","4p4","3P2","4p3°3/2",3.872,0.007,"L8672c99"
93,"Np LXI",60,33,"Neptunium","As","Ar3d104s24p3","4p3","°3/2","4p2 3P0",3.947,0.01,"L8672c99"
93,"Np LXII",61,32,"Neptunium","Ge","Ar3d104s24p2","4p2","3P0","4p 2P°1/2",4.353,0.012,"L8672c99"
93,"Np LXIII",62,31,"Neptunium","Ga","Ar3d104s24p","4p","2P°1/2","4s2 1S0",4.441,0.015,"L8672c99"
93,"Np LXIV",63,30,"Neptunium","Zn","Ar3d104s2","4s2","1S0","4s 2S1/2",4.658,0.019,"L8672c99"
93,"Np LXV",64,29,"Neptunium","Cu","Ar3d104s","4s","2S1/2","3d10 1S0",4.744,0.024,"L8672c99"