"Z","Species","CS","Occ","Element","Iso_elec","Ground_Shells","Ground_Config","Ground_Level","Ionized_Level","IE","IE_uncertainty","References"
1,"H I",0,1,"Hydrogen","H","1s","1s","2S1/2","2S1/2",0.013598434599702,1.2e-14,"HDEL"
2,"He I",0,2,"Helium","He","1s2","1s2","1S0","1s 2S1/2",0.024587389011,2.5e-11,"L17714"
2,"He II",1,1,"Helium","H","1s","1s","2S1/2",NA,0.054417765486,2.5e-11,"L7188c95"
3,"Li I",0,3,"Lithium","Li","1s22s","1s22s","2S1/2","1s2 1S0",0.005391714996,2.2e-11,"L12261"
3,"Li II",1,2,"Lithium","He","1s2","1s2","1S0","1s 2S1/2",0.075640097,1.2e-09,"L10054"
3,"Li III",2,1,"Lithium","H","1s","1s","2S1/2",NA,0.12245435914,2.5e-10,"L3620c96"
4,"Be I",0,4,"Beryllium","Be","1s22s2","1s22s2","1S0","2s 2S1/2",0.009322699,7e-09,"L5964"
4,"Be II",1,3,"Beryllium","Li","1s22s","1s22s","2S1/2","1s2 1S0",0.01821115,4e-08,"L12158"
4,"Be III",2,2,"Beryllium","He","1s2","1s2","1S0","1s 2S1/2",0.153896205,4e-09,"L10054"
4,"Be IV",3,1,"Beryllium","H","1s","1s","2S1/2",NA,0.2177185861,1e-09,"L3620c97"
5,"B I",0,5,"Boron","B","1s22s22p","2s22p","2P°1/2","2s2 1S0",0.008298019,3e-09,"L12312"
5,"B II",1,4,"Boron","Be","1s22s2","1s22s2","1S0","2s 2S1/2",0.02515483,5e-08,"L12120"
5,"B III",2,3,"Boron","Li","1s22s","1s22s","2S1/2","1s2 1S0",0.03793059,7e-08,"L12547"
5,"B IV",3,2,"Boron","He","1s2","1s2","1S0","1s 2S1/2",0.2593715,2.5e-06,"L12548"
5,"B V",4,1,"Boron","H","1s","1s","2S1/2",NA,0.3402260229,2.5e-09,"L12548"
6,"C I",0,6,"Carbon","C","1s22s22p2","2s22p2","3P0","2s22p 2P°1/2",0.011260288,1.1e-09,"L20057"
6,"C II",1,5,"Carbon","B","1s22s22p","2s22p","2P°1/2","2s2 1S0",0.024383154,1.6e-08,"c190"
6,"C III",2,4,"Carbon","Be","1s22s2","1s22s2","1S0","2s 2S1/2",0.04788778,2.5e-07,"L876c191"
6,"C IV",3,3,"Carbon","Li","1s22s","1s22s","2S1/2","1s2 1S0",0.06449352,1.9e-07,"L11667"
6,"C V",4,2,"Carbon","He","1s2","1s2","1S0","1s 2S1/2",0.392090518,2.5e-08,"L10054"
6,"C VI",5,1,"Carbon","H","1s","1s","2S1/2",NA,0.489993198,6e-09,"L7188"
7,"N I",0,7,"Nitrogen","N","1s22s22p3","2s22p3","4S°3/2","2p2 3P0",0.01453413,4e-08,"L1411"
7,"N II",1,6,"Nitrogen","C","1s22s22p2","2s22p2","3P0","2p 2P°1/2",0.02960125,9e-08,"L11770"
7,"N III",2,5,"Nitrogen","B","1s22s22p","2s22p","2P°1/2","2s2 1S0",0.0474453,2.5e-06,"L11770"
7,"N IV",3,4,"Nitrogen","Be","1s22s2","1s22s2","1S0","2s 2S1/2",0.0774735,4e-07,"L7288,L876"
7,"N V",4,3,"Nitrogen","Li","1s22s","1s22s","2S1/2","1s2 1S0",0.0978901,4e-07,"L4829"
7,"N VI",5,2,"Nitrogen","He","1s2","1s2","1S0","1s 2S1/2",0.55206733,4e-08,"L10054"
7,"N VII",6,1,"Nitrogen","H","1s","1s","2S1/2",NA,0.667046121,1.2e-08,"L7188"
8,"O I",0,8,"Oxygen","O","1s22s22p4","2s22p4","3P2","2p3 4S°3/2",0.013618055,7e-09,"L74,L3760"
8,"O II",1,7,"Oxygen","N","1s22s22p3","2s22p3","4S°3/2","2p2 3P0",0.03512112,6e-08,"L11267,L10621"
8,"O III",2,6,"Oxygen","C","1s22s22p2","2s22p2","3P0","2p 2P°1/2",0.05493554,1.2e-07,"L11770"
8,"O IV",3,5,"Oxygen","B","1s22s22p","2s22p","2P°1/2","2s2 1S0",0.0774135,2.5e-07,"L648"
8,"O V",4,4,"Oxygen","Be","1s22s2","1s22s2","1S0","2s 2S1/2",0.113899,5e-07,"L7288"
8,"O VI",5,3,"Oxygen","Li","1s22s","1s22s","2S1/2","1s2 1S0",0.1381189,2.1e-06,"L4713"
8,"O VII",6,2,"Oxygen","He","1s2","1s2","1S0","1s 2S1/2",0.73932683,6e-08,"L10054"
8,"O VIII",7,1,"Oxygen","H","1s","1s","2S1/2",NA,0.871409883,2.5e-08,"L7188"
9,"F I",0,9,"Fluorine","F","1s22s22p5","2s22p5","2P°3/2","2p4 3P2",0.01742282,5e-08,"L7481,L526"
9,"F II",1,8,"Fluorine","O","1s22s22p4","2s22p4","3P2","2p3 4S°3/2",0.03497081,1.2e-07,"L369"
9,"F III",2,7,"Fluorine","N","1s22s22p3","2s22p3","4S°3/2","2p2 3P0",0.06270798,2.5e-07,"L11770"
9,"F IV",3,6,"Fluorine","C","1s22s22p2","2s22p2","3P0","2p 2P°1/2",0.087175,1.7e-05,"L11770"
9,"F V",4,5,"Fluorine","B","1s22s22p","2s22p","2P°1/2","2s2 1S0",0.114249,6e-06,"L11770"
9,"F VI",5,4,"Fluorine","Be","1s22s2","1s22s2","1S0","2s 2S1/2",0.15716311,2.5e-07,"L6491"
9,"F VII",6,3,"Fluorine","Li","1s22s","1s22s","2S1/2","1s2 1S0",0.1851868,6e-07,"L6335"
9,"F VIII",7,2,"Fluorine","He","1s2","1s2","1S0","1s 2S1/2",0.95389805,1e-07,"L10054"
9,"F IX",8,1,"Fluorine","H","1s","1s","2S1/2",NA,1.10311748,5e-08,"L7188"
10,"Ne I",0,10,"Neon","Ne","1s22s22p6","2s22p6","1S0","2p5 2P°3/2",0.021564541,7e-09,"L8826,L1407"
10,"Ne II",1,9,"Neon","F","1s22s22p5","2s22p5","2P°3/2","2p4 3P2",0.04096297,4e-08,"L1406"
10,"Ne III",2,8,"Neon","O","1s22s22p4","2s22p4","3P2","2p3 4S°3/2",0.0634233,3e-07,"L9091"
10,"Ne IV",3,7,"Neon","N","1s22s22p3","2s22p3","4S°3/2","2s22p2 3P0",0.09719,2.5e-06,"L11782"
10,"Ne V",4,6,"Neon","C","1s22s22p2","2s22p2","3P0","2p 2P°1/2",0.126247,1.2e-05,"L11744"
10,"Ne VI",5,5,"Neon","B","1s22s22p","2s22p","2P°1/2","2s2 1S0",0.157934,5e-06,"L9340"
10,"Ne VII",6,4,"Neon","Be","1s22s2","1s22s2","1S0","2s 2S1/2",0.207271,1.2e-05,"L9089"
10,"Ne VIII",7,3,"Neon","Li","1s22s","1s22s","2S1/2","1s2 1S0",0.239097,1.9e-06,"L9090"
10,"Ne IX",8,2,"Neon","He","1s2","1s2","1S0","1s 2S1/2",1.19580784,1.5e-07,"L10054"
10,"Ne X",9,1,"Neon","H","1s","1s","2S1/2",NA,1.36219916,9e-08,"L7188"
11,"Na I",0,11,"Sodium","Na","Ne3s","2p63s","2S1/2","2p6 1S0",0.00513907696,2.5e-10,"L10921,L9648"
11,"Na II",1,10,"Sodium","Ne","1s22s22p6","2s22p6","1S0","2p5 2P°3/2",0.04728636,2.5e-07,"L914"
11,"Na III",2,9,"Sodium","F","1s22s22p5","2s22p5","2P°3/2","2p4 3P2",0.07162,1.2e-06,"L5793,L2720"
11,"Na IV",3,8,"Sodium","O","1s22s22p4","2s22p4","3P2","2p3 4S°3/2",0.098936,1.2e-05,"L11770"
11,"Na V",4,7,"Sodium","N","1s22s22p3","2s22p3","4S°3/2","2p2 3P0",0.138404,1.2e-05,"L7482"
11,"Na VI",5,6,"Sodium","C","1s22s22p2","2s22p2","3P0","2p 2P°1/2",0.17223,5e-05,"L11770"
11,"Na VII",6,5,"Sodium","B","1s22s22p","2s22p","2P°1/2","2s2 1S0",0.208504,1.2e-05,"L11770"
11,"Na VIII",7,4,"Sodium","Be","1s22s2","1s22s2","1S0","2s 2S1/2",0.264192,2.2e-05,"L11770"
11,"Na IX",8,3,"Sodium","Li","1s22s","1s22s","2S1/2","1s2 1S0",0.299856,7e-06,"L16264c99"
11,"Na X",9,2,"Sodium","He","1s2","1s2","1S0","1s 2S1/2",1.465134502,2.5e-08,"L13237"
11,"Na XI",10,1,"Sodium","H","1s","1s","2S1/2",NA,1.6487022,1.2e-07,"L7188"
12,"Mg I",0,12,"Magnesium","Mg","Ne3s2","2p63s2","1S0","3s 2S1/2",0.007646236,4e-09,"L10635,L6969"
12,"Mg II",1,11,"Magnesium","Na","Ne3s","2p63s","2S1/2","2p6 1S0",0.015035271,6e-09,"L10635"
12,"Mg III",2,10,"Magnesium","Ne","1s22s22p6","2s22p6","1S0","2p5 2P°3/2",0.0801436,6e-07,"L4995,L1434"
12,"Mg IV",3,9,"Magnesium","F","1s22s22p5","2s22p5","2P°3/2","2p4 3P2",0.1092654,1.2e-06,"L4995,L2720"
12,"Mg V",4,8,"Magnesium","O","1s22s22p4","2s22p4","3P2","2p3 4S°3/2",0.14133,3e-05,"L11770"
12,"Mg VI",5,7,"Magnesium","N","1s22s22p3","2s22p3","4S°3/2","2p2 3P0",0.18676,6e-05,"L10635"
12,"Mg VII",6,6,"Magnesium","C","1s22s22p2","2s22p2","3P0","2p 2P°1/2",0.22502,6e-05,"L11770"
12,"Mg VIII",7,5,"Magnesium","B","1s22s22p","2s22p","2P°1/2","2s2 1S0",0.265924,1.9e-05,"L11770"
12,"Mg IX",8,4,"Magnesium","Be","1s22s2","1s22s2","1S0","2s 2S1/2",0.32799,4e-05,"L11770"
12,"Mg X",9,3,"Magnesium","Li","1s22s","1s22s","2S1/2","1s2 1S0",0.367489,7e-06,"L16264c99"
12,"Mg XI",10,2,"Magnesium","He","1s2","1s2","1S0","1s 2S1/2",1.76180488,2e-07,"L12128"
12,"Mg XII",11,1,"Magnesium","H","1s","1s","2S1/2",NA,1.96266366,1.2e-07,"L7188"
13,"Al I",0,13,"Aluminum","Al","Ne3s23p","3s23p","2P°1/2","3s2 1S0",0.005985769,3e-09,"L7215,L10321"
13,"Al II",1,12,"Aluminum","Mg","Ne3s2","2p63s2","1S0","3s 2S1/2",0.01882855,5e-08,"L7215"
13,"Al III",2,11,"Aluminum","Na","Ne3s","2p63s","2S1/2","2p6 1S0",0.028447642,2.5e-08,"L4714,L277"
13,"Al IV",3,10,"Aluminum","Ne","1s22s22p6","2s22p6","1S0","2p5 2P°3/2",0.1199924,1.9e-06,"L4714,L2829"
13,"Al V",4,9,"Aluminum","F","1s22s22p5","2s22p5","2P°3/2","2p4 3P2",0.1538252,2.5e-06,"L4714,L3565"
13,"Al VI",5,8,"Aluminum","O","1s22s22p4","2s22p4","3P2","2p3 4S°3/2",0.19049,5e-05,"L7215"
13,"Al VII",6,7,"Aluminum","N","1s22s22p3","2s22p3","4S°3/2","2p2 3P0",0.24176,9e-05,"L7215"
13,"Al VIII",7,6,"Aluminum","C","1s22s22p2","2s22p2","3P0","2p 2P°1/2",0.28464,7e-05,"L11770"
13,"Al IX",8,5,"Aluminum","B","1s22s22p","2s22p","2P°1/2","2s2 1S0",0.33021,4e-05,"L11770"
13,"Al X",9,4,"Aluminum","Be","1s22s2","1s22s2","1S0","2s 2S1/2",0.39865,6e-05,"L11770"
13,"Al XI",10,3,"Aluminum","Li","1s22s","1s22s","2S1/2","1s2 1S0",0.442005,7e-06,"L16264c99"
13,"Al XII",11,2,"Aluminum","He","1s2","1s2","1S0","1s 2S1/2",2.08597702,2e-07,"L12128"
13,"Al XIII",12,1,"Aluminum","H","1s","1s","2S1/2",NA,2.30414007,2.5e-07,"L7188"
14,"Si I",0,14,"Silicon","Si","Ne3s23p2","3s23p2","3P0","3p 2P°1/2",0.00815168,3e-08,"L5815"
14,"Si II",1,13,"Silicon","Al","Ne3s23p","3s23p","2P°1/2","3s2 1S0",0.01634585,4e-08,"L5815"
14,"Si III",2,12,"Silicon","Mg","Ne3s2","2p63s2","1S0","3s 2S1/2",0.033493,9e-08,"L5815"
14,"Si IV",3,11,"Silicon","Na","Ne3s","2p63s","2S1/2","2p6 1S0",0.04514179,7e-08,"L5815,L6098"
14,"Si V",4,10,"Silicon","Ne","1s22s22p6","2s22p6","1S0","2p5 2P°3/2",0.166767,3e-06,"L3934"
14,"Si VI",5,9,"Silicon","F","1s22s22p5","2s22p5","2P°3/2","2p4 3P2",0.205279,5e-06,"c192"
14,"Si VII",6,8,"Silicon","O","1s22s22p4","2s22p4","3P2","2p3 4S°3/2",0.24657,5e-05,"c193"
14,"Si VIII",7,7,"Silicon","N","1s22s22p3","2s22p3","4S°3/2","2p2 3P0",0.30359,5e-05,"c193"
14,"Si IX",8,6,"Silicon","C","1s22s22p2","2s22p2","3P0","2p 2P°1/2",0.35128,6e-05,"c193"
14,"Si X",9,5,"Silicon","B","1s22s22p","2s22p","2P°1/2","2s2 1S0",0.40138,4e-05,"L11770"
14,"Si XI",10,4,"Silicon","Be","1s22s2","1s22s2","1S0","2s 2S1/2",0.476273,1.9e-05,"c192"
14,"Si XII",11,3,"Silicon","Li","1s22s","1s22s","2S1/2","1s2 1S0",0.523415,7e-06,"L16264c99"
14,"Si XIII",12,2,"Silicon","He","1s2","1s2","1S0","1s 2S1/2",2.43765815,2e-07,"L12128"
14,"Si XIV",13,1,"Silicon","H","1s","1s","2S1/2",NA,2.67317755,2.5e-07,"L7188"
15,"P I",0,15,"Phosphorus","P","Ne3s23p3","3s23p3","4S°3/2","3p2 3P0",0.010486686,1.5e-08,"L5148"
15,"P II",1,14,"Phosphorus","Si","Ne3s23p2","3s23p2","3P0","3p 2P°1/2",0.01976949,4e-08,"L11770"
15,"P III",2,13,"Phosphorus","Al","Ne3s23p","3s23p","2P°1/2","3s2 1S0",0.03020264,9e-08,"L7147"
15,"P IV",3,12,"Phosphorus","Mg","Ne3s2","2p63s2","1S0","3s 2S1/2",0.05144387,1.2e-07,"L7147"
15,"P V",4,11,"Phosphorus","Na","Ne3s","2p63s","2S1/2","2p6 1S0",0.06502511,1.2e-07,"L7147,L2613"
15,"P VI",5,10,"Phosphorus","Ne","1s22s22p6","2s22p6","1S0","2p5 2P°3/2",0.22043,5e-06,"L11770"
15,"P VII",6,9,"Phosphorus","F","1s22s22p5","2s22p5","2P°3/2","2p4 3P2",0.26357,6e-05,"L7147"
15,"P VIII",7,8,"Phosphorus","O","1s22s22p4","2s22p4","3P2","2p3 4S°3/2",0.3096,1e-04,"L7147"
15,"P IX",8,7,"Phosphorus","N","1s22s22p3","2s22p3","4S°3/2","2p2 3P0",0.37231,0.00021,"L11770"
15,"P X",9,6,"Phosphorus","C","1s22s22p2","2s22p2","3P0","2p 2P°1/2",0.4244,9e-05,"L11770"
15,"P XI",10,5,"Phosphorus","B","1s22s22p","2s22p","2P°1/2","2s2 1S0",0.47944,5e-05,"L11770"
15,"P XII",11,4,"Phosphorus","Be","1s22s2","1s22s2","1S0","2s 2S1/2",0.56062,1e-04,"L11770"
15,"P XIII",12,3,"Phosphorus","Li","1s22s","1s22s","2S1/2","1s2 1S0",0.611741,7e-06,"L16264c99"
15,"P XIV",13,2,"Phosphorus","He","1s2","1s2","1S0","1s 2S1/2",2.81690879,2e-07,"L12128"
15,"P XV",14,1,"Phosphorus","H","1s","1s","2S1/2",NA,3.0698416,4e-07,"L7188"
16,"S I",0,16,"Sulfur","S","Ne3s23p4","3s23p4","3P2","3p3 4S°3/2",0.01036001,1.2e-07,"L7237"
16,"S II",1,15,"Sulfur","P","Ne3s23p3","3s23p3","4S°3/2","3p2 3P0",0.02333788,2.5e-07,"L7237,L5883"
16,"S III",2,14,"Sulfur","Si","Ne3s23p2","3s23p2","3P0","3p 2P°1/2",0.03486,4e-05,"L11770"
16,"S IV",3,13,"Sulfur","Al","Ne3s23p","3s23p","2P°1/2","3s2 1S0",0.047222,1.2e-05,"L7237"
16,"S V",4,12,"Sulfur","Mg","Ne3s2","2p63s2","1S0","3s 2S1/2",0.0725945,4e-07,"L7237"
16,"S VI",5,11,"Sulfur","Na","Ne3s","2p63s","2S1/2","2p6 1S0",0.0880529,4e-07,"L7237,L4882"
16,"S VII",6,10,"Sulfur","Ne","1s22s22p6","2s22p6","1S0","2p5 2P°3/2",0.280954,7e-06,"L9896"
16,"S VIII",7,9,"Sulfur","F","1s22s22p5","2s22p5","2P°3/2","2p4 3P2",0.328794,7e-06,"L11242"
16,"S IX",8,8,"Sulfur","O","1s22s22p4","2s22p4","3P2","2p3 4S°3/2",0.37984,0.00021,"L11770"
16,"S X",9,7,"Sulfur","N","1s22s22p3","2s22p3","4S°3/2","2p2 3P0",0.4477,3e-04,"L11770"
16,"S XI",10,6,"Sulfur","C","1s22s22p2","2s22p2","3P0","2p 2P°1/2",0.50455,0.00012,"L11770"
16,"S XII",11,5,"Sulfur","B","1s22s22p","2s22p","2P°1/2","2s2 1S0",0.56441,5e-05,"L11770"
16,"S XIII",12,4,"Sulfur","Be","1s22s2","1s22s2","1S0","2s 2S1/2",0.65196,0.00012,"L11770"
16,"S XIV",13,3,"Sulfur","Li","1s22s","1s22s","2S1/2","1s2 1S0",0.706994,7e-06,"L16264c99"
16,"S XV",14,2,"Sulfur","He","1s2","1s2","1S0","1s 2S1/2",3.2237807,3e-07,"L12128"
16,"S XVI",15,1,"Sulfur","H","1s","1s","2S1/2",NA,3.4941879,5e-07,"L7188"
17,"Cl I",0,17,"Chlorine","Cl","Ne3s23p5","3s23p5","2P°3/2","3p4 3P2",0.012967633,1.6e-08,"L19191"
17,"Cl II",1,16,"Chlorine","S","Ne3s23p4","3s23p4","3P2","3p3 4S°3/2",0.02381364,1.2e-07,"L1617"
17,"Cl III",2,15,"Chlorine","P","Ne3s23p3","3s23p3","4S°3/2","3p2 3P0",0.0398,0.00011,"L11770"
17,"Cl IV",3,14,"Chlorine","Si","Ne3s23p2","3s23p2","3P0","3p 2P°1/2",0.05324,0.00012,"L11770"
17,"Cl V",4,13,"Chlorine","Al","Ne3s23p","3s23p","2P°1/2","3s2 1S0",0.06768,1e-04,"L11770"
17,"Cl VI",5,12,"Chlorine","Mg","Ne3s2","2p63s2","1S0","3s 2S1/2",0.09694,4e-05,"L11770"
17,"Cl VII",6,11,"Chlorine","Na","Ne3s","2p63s","2S1/2","2p6 1S0",0.1142013,6e-07,"L6356"
17,"Cl VIII",7,10,"Chlorine","Ne","1s22s22p6","2s22p6","1S0","2p5 2P°3/2",0.348306,7e-06,"L6972"
17,"Cl IX",8,9,"Chlorine","F","1s22s22p5","2s22p5","2P°3/2","2p4 3P2",0.400851,1.2e-05,"L9369"
17,"Cl X",9,8,"Chlorine","O","1s22s22p4","2s22p4","3P2","2p3 4S°3/2",0.4567,4e-04,"L11770"
17,"Cl XI",10,7,"Chlorine","N","1s22s22p3","2s22p3","4S°3/2","2p2 3P0",0.53,4e-04,"L11770"
17,"Cl XII",11,6,"Chlorine","C","1s22s22p2","2s22p2","3P0","2p 2P°1/2",0.59158,0.00019,"L11770"
17,"Cl XIII",12,5,"Chlorine","B","1s22s22p","2s22p","2P°1/2","2s2 1S0",0.6563,0.00012,"L11770"
17,"Cl XIV",13,4,"Chlorine","Be","1s22s2","1s22s2","1S0","2s 2S1/2",0.75023,0.00019,"L11770"
17,"Cl XV",14,3,"Chlorine","Li","1s22s","1s22s","2S1/2","1s2 1S0",0.809198,7e-06,"L16264c99"
17,"Cl XVI",15,2,"Chlorine","He","1s2","1s2","1S0","1s 2S1/2",3.6583438,3e-07,"L12128"
17,"Cl XVII",16,1,"Chlorine","H","1s","1s","2S1/2",NA,3.9462909,6e-07,"L7188"
18,"Ar I",0,18,"Argon","Ar","Ne3s23p6","3s23p6","1S0","3p5 2P°3/2",0.0157596119,5e-10,"L9217"
18,"Ar II",1,17,"Argon","Cl","Ne3s23p5","3s23p5","2P°3/2","3p4 3P2",0.02762967,1.2e-07,"L8844"
18,"Ar III",2,16,"Argon","S","Ne3s23p4","3s23p4","3P2","3p3 4S°3/2",0.040735,1.2e-05,"L8114"
18,"Ar IV",3,15,"Argon","P","Ne3s23p3","3s23p3","4S°3/2","3p2 3P0",0.05958,0.00018,"L11770"
18,"Ar V",4,14,"Argon","Si","Ne3s23p2","3s23p2","3P0","3p 2P°1/2",0.07484,0.00017,"L11770"
18,"Ar VI",5,13,"Argon","Al","Ne3s23p","3s23p","2P°1/2","3s2 1S0",0.09129,1e-05,"L12277"
18,"Ar VII",6,12,"Argon","Mg","Ne3s2","2p63s2","1S0","3s 2S1/2",0.12441,6e-05,"L11770"
18,"Ar VIII",7,11,"Argon","Na","Ne3s","2p63s","2S1/2","2p6 1S0",0.1434567,1.2e-06,"L4344"
18,"Ar IX",8,10,"Argon","Ne","1s22s22p6","2s22p6","1S0","2p5 2P°3/2",0.4226,6e-05,"L11770"
18,"Ar X",9,9,"Argon","F","1s22s22p5","2s22p5","2P°3/2","2p4 3P2",0.47976,0.00012,"L11242c99"
18,"Ar XI",10,8,"Argon","O","1s22s22p4","2s22p4","3P2","2p3 4S°3/2",0.5404,6e-04,"L11770"
18,"Ar XII",11,7,"Argon","N","1s22s22p3","2s22p3","4S°3/2","2p2 3P0",0.619,4e-04,"L11770"
18,"Ar XIII",12,6,"Argon","C","1s22s22p2","2s22p2","3P0","2p 2P°1/2",0.6855,3e-04,"L11770"
18,"Ar XIV",13,5,"Argon","B","1s22s22p","2s22p","2P°1/2","2s2 1S0",0.75513,0.00022,"L11770"
18,"Ar XV",14,4,"Argon","Be","1s22s2","1s22s2","1S0","2s 2S1/2",0.8555,3e-04,"L11770"
18,"Ar XVI",15,3,"Argon","Li","1s22s","1s22s","2S1/2","1s2 1S0",0.918375,7e-06,"L16264c99"
18,"Ar XVII",16,2,"Argon","He","1s2","1s2","1S0","1s 2S1/2",4.1206657,4e-07,"L12128"
18,"Ar XVIII",17,1,"Argon","H","1s","1s","2S1/2",NA,4.4262229,7e-07,"L7188"
19,"K I",0,19,"Potassium","K","Ar4s","3p64s","2S1/2","3p6 1S0",0.00434066373,9e-11,"L5451,L5783,L7185"
19,"K II",1,18,"Potassium","Ar","Ne3s23p6","3p6","1S0","3p5 2P°3/2",0.031625,1.9e-07,"L12188"
19,"K III",2,17,"Potassium","Cl","Ne3s23p5","3s23p5","2P°3/2","3p4 3P2",0.0458031,1.7e-06,"L11770"
19,"K IV",3,16,"Potassium","S","Ne3s23p4","3s23p4","3P2","3p3 4S°3/2",0.060917,1.9e-05,"L11770"
19,"K V",4,15,"Potassium","P","Ne3s23p3","3s23p3","4S°3/2","3p2 3P0",0.08266,0.00016,"L241"
19,"K VI",5,14,"Potassium","Si","Ne3s23p2","3s23p2","3P0","3p 2P°1/2",0.09944,2e-04,"L7185"
19,"K VII",6,13,"Potassium","Al","Ne3s23p","3s23p","2P°1/2","3s2 1S0",0.11756,0.00011,"L7185"
19,"K VIII",7,12,"Potassium","Mg","Ne3s2","3s2","1S0","3s 2S1/2",0.15487,5e-05,"L12392"
19,"K IX",8,11,"Potassium","Na","Ne3s","2p63s","2S1/2","2p6 1S0",0.1758174,2.5e-06,"L4344"
19,"K X",9,10,"Potassium","Ne","1s22s22p6","2s22p6","1S0","2p5 2P°3/2",0.50367,7e-05,"L11770"
19,"K XI",10,9,"Potassium","F","1s22s22p5","2s22p5","2P°3/2","2p4 3P2",0.5656,7e-04,"L11770"
19,"K XII",11,8,"Potassium","O","1s22s22p4","2s22p4","3P2","2p3 4S°3/2",0.6311,9e-04,"L11770"
19,"K XIII",12,7,"Potassium","N","1s22s22p3","2s22p3","4S°3/2","2p2 3P0",0.7147,5e-04,"L11770"
19,"K XIV",13,6,"Potassium","C","1s22s22p2","2s22p2","3P0","2p 2P°1/2",0.7863,3e-04,"L11770"
19,"K XV",14,5,"Potassium","B","1s22s22p","2s22p","2P°1/2","2s2 1S0",0.86092,0.00025,"L11770"
19,"K XVI",15,4,"Potassium","Be","1s22s2","2s2","1S0","2s 2S1/2",0.9677,3e-04,"L11770"
19,"K XVII",16,3,"Potassium","Li","1s22s","1s22s","2S1/2","1s2 1S0",1.034542,7e-06,"L16264c99"
19,"K XVIII",17,2,"Potassium","He","1s2","1s2","1S0","1s 2S1/2",4.61087018,1.2e-07,"L8473"
19,"K XIX",18,1,"Potassium","H","1s","1s","2S1/2",NA,4.9340484,9e-07,"L7188"
20,"Ca I",0,20,"Calcium","Ca","Ar4s2","3p64s2","1S0","4s 2S1/2",0.00611315547,2.5e-10,"L8900"
20,"Ca II",1,19,"Calcium","K","Ar4s","3p64s","2S1/2","3p6 1S0",0.011871719,4e-09,"L7185,L7323"
20,"Ca III",2,18,"Calcium","Ar","Ne3s23p6","3s23p6","1S0","3p5 2P°3/2",0.05091316,2.5e-07,"L1405"
20,"Ca IV",3,17,"Calcium","Cl","Ne3s23p5","3s23p5","2P°3/2","3p4 3P2",0.0672732,2.1e-06,"L11770"
20,"Ca V",4,16,"Calcium","S","Ne3s23p4","3s23p4","3P2","3p3 4S°3/2",0.08434,8e-05,"L11770"
20,"Ca VI",5,15,"Calcium","P","Ne3s23p3","3s23p3","4S°3/2","3p2 3P0",0.10878,0.00025,"L7185"
20,"Ca VII",6,14,"Calcium","Si","Ne3s23p2","3s23p2","3P0","3p 2P°1/2",0.12721,0.00025,"L7185"
20,"Ca VIII",7,13,"Calcium","Al","Ne3s23p","3s23p","2P°1/2","3s2 1S0",0.14724,0.00012,"L7185"
20,"Ca IX",8,12,"Calcium","Mg","Ne3s2","2p63s2","1S0","3s 2S1/2",0.18854,6e-05,"L7185"
20,"Ca X",9,11,"Calcium","Na","Ne3s","2p63s","2S1/2","2p6 1S0",0.211275,4e-06,"L11770"
20,"Ca XI",10,10,"Calcium","Ne","1s22s22p6","2s22p6","1S0","2p5 2P°3/2",0.5916,0.00012,"L11770"
20,"Ca XII",11,9,"Calcium","F","1s22s22p5","2s22p5","2P°3/2","2p4 3P2",0.6582,9e-04,"L11770"
20,"Ca XIII",12,8,"Calcium","O","1s22s22p4","2s22p4","3P2","2p3 4S°3/2",0.7286,0.0011,"L11770"
20,"Ca XIV",13,7,"Calcium","N","1s22s22p3","2s22p3","4S°3/2","2p2 3P0",0.8172,6e-04,"L11770"
20,"Ca XV",14,6,"Calcium","C","1s22s22p2","2s22p2","3P0","2p 2P°1/2",0.894,4e-04,"L11770"
20,"Ca XVI",15,5,"Calcium","B","1s22s22p","2s22p","2P°1/2","2s2 1S0",0.9737,3e-04,"L11770"
20,"Ca XVII",16,4,"Calcium","Be","1s22s2","1s22s2","1S0","2s 2S1/2",1.0868,4e-04,"L11770"
20,"Ca XVIII",17,3,"Calcium","Li","1s22s","1s22s","2S1/2","1s2 1S0",1.157726,7e-06,"L16264c99"
20,"Ca XIX",18,2,"Calcium","He","1s2","1s2","1S0","1s 2S1/2",5.1288578,5e-07,"L12128"
20,"Ca XX",19,1,"Calcium","H","1s","1s","2S1/2",NA,5.4698616,1e-06,"L7188"
21,"Sc I",0,21,"Scandium","Sc","Ar3d4s2","3d4s2","2D3/2","3d4s 3D1",0.00656149,6e-08,"L7185,L2110"
21,"Sc II",1,20,"Scandium","Ca","Ar3d4s","3p63d4s","3D1","3d 2D3/2",0.01279977,2.5e-07,"L7185,L5141"
21,"Sc III",2,19,"Scandium","K","Ar3d","3p63d","2D3/2","3p6 1S0",0.024756839,1.2e-08,"L1891,L7185"
21,"Sc IV",3,18,"Scandium","Ar","Ne3s23p6","3s23p6","1S0","3p5 2P°3/2",0.0734894,4e-07,"L7185,L2826"
21,"Sc V",4,17,"Scandium","Cl","Ne3s23p5","3s23p5","2P°3/2","3p4 3P2",0.09195,3e-05,"L11770"
21,"Sc VI",5,16,"Scandium","S","Ne3s23p4","3s23p4","3P2","3p3 4S°3/2",0.11068,5e-05,"L7185"
21,"Sc VII",6,15,"Scandium","P","Ne3s23p3","3s23p3","4S°3/2","3p2 3P0",0.13799,0.00025,"L7185"
21,"Sc VIII",7,14,"Scandium","Si","Ne3s23p2","3s23p2","3P0","3p 2P°1/2",0.15808,0.00025,"L7185"