"Z","Species","CS","Occ","Element","Iso_elec","Ground_Shells","Ground_Config","Ground_Level","Ionized_Level","IE","IE_uncertainty","References"
66,"Dy XVIII",17,49,"Dysprosium","In","Kr4d104f3","4f3","4I°9/2","4f2 3H4",0.399,0.02,"L582"
66,"Dy XIX",18,48,"Dysprosium","Cd","Kr4d104f2","4f2","3H4","4f 2F°5/2",0.431,0.021,"L582"
66,"Dy XX",19,47,"Dysprosium","Ag","Kr4d104f","4f","2F°5/2","4d10 1S0",0.4649,0.0025,"L582c99"
66,"Dy XXI",20,46,"Dysprosium","Pd","Kr4d10","4d10","1S0","4d9 2D5/2",0.664,0.004,"L8672c99"
66,"Dy XXII",21,45,"Dysprosium","Rh","Kr4d9","4d9","2D5/2","4d8 3F4",0.702,0.004,"L8672c99"
66,"Dy XXIII",22,44,"Dysprosium","Ru","Kr4d8","4d8","3F4","4d7 4F9/2",0.743,0.004,"L8672c99"
66,"Dy XXIV",23,43,"Dysprosium","Tc","Kr4d7","4d7","4F9/2","4d6 5D4",0.786,0.004,"L8672c99"
66,"Dy XXV",24,42,"Dysprosium","Mo","Kr4d6","4d6","5D4","4d5 6S5/2",0.827,0.004,"L8672c99"
66,"Dy XXVI",25,41,"Dysprosium","Nb","Kr4d5","4d5","6S5/2","4d4 5D0",0.872,0.004,"L8672c99"
66,"Dy XXVII",26,40,"Dysprosium","Zr","Kr4d4","4d4","5D0","4d3 4F3/2",0.924,0.004,"L8672c99"
66,"Dy XXVIII",27,39,"Dysprosium","Y","Kr4d3","4d3","4F3/2","4d2 3F2",0.969,0.004,"L8672c99"
66,"Dy XXIX",28,38,"Dysprosium","Sr","Kr4d2","4d2","3F2","4d 2D3/2",1.014,0.004,"L8672c99"
66,"Dy XXX",29,37,"Dysprosium","Rb","Kr4d","4d","2D3/2","4p6 1S0",1.059,0.004,"L8672c99"
66,"Dy XXXI",30,36,"Dysprosium","Kr","Ar3d104s24p6","4p6","1S0","4p5 2P°3/2",1.232,0.004,"L8672c99"
66,"Dy XXXII",31,35,"Dysprosium","Br","Ar3d104s24p5","4p5","2P°3/2","4p4 3P2",1.275,0.004,"L8672c99"
66,"Dy XXXIII",32,34,"Dysprosium","Se","Ar3d104s24p4","4p4","3P2","4p3 4S°3/2",1.325,0.004,"L8672c99"
66,"Dy XXXIV",33,33,"Dysprosium","As","Ar3d104s24p3","4p3","4S°3/2","4p2 3P0",1.371,0.005,"L8672c99"
66,"Dy XXXV",34,32,"Dysprosium","Ge","Ar3d104s24p2","4p2","3P0","4p 2P°1/2",1.468,0.005,"L8672c99"
66,"Dy XXXVI",35,31,"Dysprosium","Ga","Ar3d104s24p","4p","2P°1/2","4s2 1S0",1.52,0.005,"L8672c99"
66,"Dy XXXVII",36,30,"Dysprosium","Zn","Ar3d104s2","4s2","1S0","4s 2S1/2",1.638,0.005,"L8672c99"
66,"Dy XXXVIII",37,29,"Dysprosium","Cu","Ar3d104s","4s","2S1/2","3d10 1S0",1.6917,3e-04,"L5473"
66,"Dy XXXIX",38,28,"Dysprosium","Ni","Ar3d10","3d10","1S0","3d9 2D5/2",2.882,0.004,"L8672c99"
66,"Dy XL",39,27,"Dysprosium","Co","Ar3d9","3d9","2D5/2","3d8 3F4",2.987,0.004,"L8672c99"
66,"Dy XLI",40,26,"Dysprosium","Fe","Ar3d8","3d8","3F4","3d7 4F9/2",3.098,0.004,"L8672c99"
66,"Dy XLII",41,25,"Dysprosium","Mn","Ar3d7","3d7","4F9/2","3d6 4",3.217,0.004,"L8672c99"
66,"Dy XLIII",42,24,"Dysprosium","Cr","Ar3d6","3d6","4","3d5 5/2",3.331,0.004,"L8672c99"
66,"Dy XLIV",43,23,"Dysprosium","V","Ar3d5","3d5","5/2","3d4 5D0",3.445,0.004,"L8672c99"
66,"Dy XLV",44,22,"Dysprosium","Ti","Ar3d4","3d4","5D0","3d3 4F3/2",3.607,0.004,"L8672c99"
66,"Dy XLVI",45,21,"Dysprosium","Sc","Ar3d3","3d3","4F3/2","3d2 3F2",3.725,0.004,"L8672c99"
66,"Dy XLVII",46,20,"Dysprosium","Ca","Ar3d2","3d2","3F2","3d 2D3/2",3.852,0.004,"L8672c99"
66,"Dy XLVIII",47,19,"Dysprosium","K","Ar3d","3d","2D3/2","3p6 1S0",3.97,0.004,"L8672c99"
66,"Dy XLIX",48,18,"Dysprosium","Ar","Ne3s23p6","3p6","1S0","3p5 2P°3/2",4.303,0.004,"L8672c99"
66,"Dy L",49,17,"Dysprosium","Cl","Ne3s23p5","3p5","2P°3/2","3p4 3P2",4.407,0.004,"L8672c99"
66,"Dy LI",50,16,"Dysprosium","S","Ne3s23p4","3p4","3P2","3p3 2P°3/2",4.523,0.004,"L8672c99"
66,"Dy LII",51,15,"Dysprosium","P","Ne3s23p3","3p3","2P°3/2","3p2 3P0",4.629,0.004,"L8672c99"
66,"Dy LIII",52,14,"Dysprosium","Si","Ne3s23p2","3p2","3P0","3p 2P°1/2",4.945,0.004,"L8672c99"
66,"Dy LIV",53,13,"Dysprosium","Al","Ne3s23p","3p","2P°1/2","3s2 1S0",5.066,0.005,"L8672c99"
66,"Dy LV",54,12,"Dysprosium","Mg","Ne3s2","3s2","1S0","3s 2S1/2",5.296,0.005,"L8672c99"
66,"Dy LVI",55,11,"Dysprosium","Na","Ne3s","3s","2S1/2","2p6 1S0",5.412,0.005,"L8672c99"
66,"Dy LVII",56,10,"Dysprosium","Ne","1s22s22p6","2p6","1S0","2p5 2P°3/2",12.081,0.005,"L8672c99"
66,"Dy LVIII",57,9,"Dysprosium","F","1s22s22p5","2p5","2P°3/2","2p4 3P2",12.37,0.006,"L8672c99"
66,"Dy LIX",58,8,"Dysprosium","O","1s22s22p4","2p4","3P2","2p21/22p3/2 0,3/2°3/2",12.69,0.006,"L8672c99"
66,"Dy LX",59,7,"Dysprosium","N","1s22s22p3","2p21/22p3/2","0,3/2°3/2","2p2 3P0",12.986,0.007,"L8672c99"
66,"Dy LXI",60,6,"Dysprosium","C","1s22s22p2","2p2","3P0","2p 2P°1/2",14.144,0.01,"L8672c99"
66,"Dy LXII",61,5,"Dysprosium","B","1s22s22p","2p","2P°1/2","2s2 1S0",14.495,0.012,"L8672c99"
66,"Dy LXIII",62,4,"Dysprosium","Be","1s22s2","2s2","1S0","2s 2S1/2",14.936,0.015,"L8672c99"
66,"Dy LXIV",63,3,"Dysprosium","Li","1s22s","2s","2S1/2","1s2 1S0",15.22806,0.00011,"L16264c99"
66,"Dy LXV",64,2,"Dysprosium","He","1s2","1s2","1S0","1s 2S1/2",61.73656,5e-05,"L12128"
66,"Dy LXVI",65,1,"Dysprosium","H","1s","1s","2S1/2",NA,63.0735,4e-04,"L7188"
67,"Ho I",0,67,"Holmium","Ho","Xe4f116s2","4f116s2","4I°15/2","4f114I°5p66s 15/2,1/2°8",0.0060215,6e-07,"L4277"
67,"Ho II",1,66,"Holmium","Dy","Xe4f116s","4f114I°15/26s1/2","15/2,1/2°8","4f11 4I°15/2",0.011781,2e-05,"L19870c180"
67,"Ho III",2,65,"Holmium","Tb","Xe4f11","4f11","4I°15/2","4f105p6 5I8",0.02279,3e-05,"L19883c180"
67,"Ho IV",3,64,"Holmium","Gd","Xe4f10","4f10","5I8","4f95p6 6H°15/2",0.04252,8e-05,"L19883c180"
67,"Ho V",4,63,"Holmium","Eu","Xe4f9","4f95p6","6H°15/2","4f95p5",0.0639,3e-04,"L4095"
67,"Ho VI",5,62,"Holmium","Sm","Cd4f95p5","4f95p5",NA,"4f95s25p4°",0.095,0.005,"L582"
67,"Ho VII",6,61,"Holmium","Pm","Cd4f95p4","4f95s25p4","°","4f95s25p3",0.112,0.006,"L582"
67,"Ho VIII",7,60,"Holmium","Nd","Cd4f95p3","4f95s25p3",NA,"4f105s25p°",0.129,0.006,"L582"
67,"Ho IX",8,59,"Holmium","Pr","Cd4f105p","4f105s25p","°","4f95s25p",0.155,0.008,"L582"
67,"Ho X",9,58,"Holmium","Ce","Cd4f95p","4f95s25p",NA,"4f95s2°",0.173,0.009,"L582"
67,"Ho XI",10,57,"Holmium","La","Cd4f9","4f95s2","°","4f85s2",0.197,0.01,"L582"
67,"Ho XII",11,56,"Holmium","Ba","Cd4f8","4f85s2",NA,"4f75s2°",0.229,0.012,"L582"
67,"Ho XIII",12,55,"Holmium","Cs","Cd4f7","4f75s2","°","4f65s2",0.263,0.014,"L582"
67,"Ho XIV",13,54,"Holmium","Xe","Cd4f6","4f65s2",NA,"4f65s°",0.284,0.014,"L582"
67,"Ho XV",14,53,"Holmium","I","Kr4d104f65s","4f65s",NA,"4f45s2",0.305,0.015,"L582"
67,"Ho XVI",15,52,"Holmium","Te","Cd4f4","4f45s2",NA,"4f5 6H°5/2",0.34,0.017,"L582"
67,"Ho XVII",16,51,"Holmium","Sb","Kr4d104f5","4f5","6H°5/2","4f4 5I4",0.373,0.019,"L582"
67,"Ho XVIII",17,50,"Holmium","Sn","Kr4d104f4","4f4","5I4","4f3 4I°9/2",0.408,0.02,"L582"
67,"Ho XIX",18,49,"Holmium","In","Kr4d104f3","4f3","4I°9/2","4f2 3H4",0.441,0.022,"L582"
67,"Ho XX",19,48,"Holmium","Cd","Kr4d104f2","4f2","3H4","4f 2F°5/2",0.475,0.024,"L582"
67,"Ho XXI",20,47,"Holmium","Ag","Kr4d104f","4f","2F°5/2","4d10 1S0",0.51,0.004,"L582c99"
67,"Ho XXII",21,46,"Holmium","Pd","Kr4d10","4d10","1S0","4d9 2D5/2",0.715,0.004,"L8672c99"
67,"Ho XXIII",22,45,"Holmium","Rh","Kr4d9","4d9","2D5/2","4d8 3F4",0.755,0.004,"L8672c99"
67,"Ho XXIV",23,44,"Holmium","Ru","Kr4d8","4d8","3F4","4d7 4F9/2",0.797,0.004,"L8672c99"
67,"Ho XXV",24,43,"Holmium","Tc","Kr4d7","4d7","4F9/2","4d6 5D4",0.842,0.004,"L8672c99"
67,"Ho XXVI",25,42,"Holmium","Mo","Kr4d6","4d6","5D4","4d5 6S5/2",0.885,0.004,"L8672c99"
67,"Ho XXVII",26,41,"Holmium","Nb","Kr4d5","4d5","6S5/2","4d4 5D0",0.929,0.004,"L8672c99"
67,"Ho XXVIII",27,40,"Holmium","Zr","Kr4d4","4d4","5D0","4d3 4F3/2",0.985,0.004,"L8672c99"
67,"Ho XXIX",28,39,"Holmium","Y","Kr4d3","4d3","4F3/2","4d2 3F2",1.029,0.004,"L8672c99"
67,"Ho XXX",29,38,"Holmium","Sr","Kr4d2","4d2","3F2","4d 2D3/2",1.077,0.004,"L8672c99"
67,"Ho XXXI",30,37,"Holmium","Rb","Kr4d","4d","2D3/2","4p6 1S0",1.122,0.004,"L8672c99"
67,"Ho XXXII",31,36,"Holmium","Kr","Ar3d104s24p6","4p6","1S0","4p5 2P°3/2",1.3,0.004,"L8672c99"
67,"Ho XXXIII",32,35,"Holmium","Br","Ar3d104s24p5","4p5","2P°3/2","4p4 3P2",1.346,0.004,"L8672c99"
67,"Ho XXXIV",33,34,"Holmium","Se","Ar3d104s24p4","4p4","3P2","4p3 4S°3/2",1.395,0.005,"L8672c99"
67,"Ho XXXV",34,33,"Holmium","As","Ar3d104s24p3","4p3","4S°3/2","4p2 3P0",1.443,0.005,"L8672c99"
67,"Ho XXXVI",35,32,"Holmium","Ge","Ar3d104s24p2","4p2","3P0","4p 2P°1/2",1.545,0.005,"L8672c99"
67,"Ho XXXVII",36,31,"Holmium","Ga","Ar3d104s24p","4p","2P°1/2","4s2 1S0",1.598,0.005,"L8672c99"
67,"Ho XXXVIII",37,30,"Holmium","Zn","Ar3d104s2","4s2","1S0","4s 2S1/2",1.719,0.004,"L8672c99"
67,"Ho XXXIX",38,29,"Holmium","Cu","Ar3d104s","4s","2S1/2","3d10 1S0",1.7736,9e-04,"L10278"
67,"Ho XL",39,28,"Holmium","Ni","Ar3d10","3d10","1S0","3d9 2D5/2",3.018,0.004,"L8672c99"
67,"Ho XLI",40,27,"Holmium","Co","Ar3d9","3d9","2D5/2","3d8 3F4",3.125,0.004,"L8672c99"
67,"Ho XLII",41,26,"Holmium","Fe","Ar3d8","3d8","3F4","3d7 4F9/2",3.238,0.004,"L8672c99"
67,"Ho XLIII",42,25,"Holmium","Mn","Ar3d7","3d7","4F9/2","3d6 4",3.359,0.004,"L8672c99"
67,"Ho XLIV",43,24,"Holmium","Cr","Ar3d6","3d6","4","3d5 5/2",3.476,0.004,"L8672c99"
67,"Ho XLV",44,23,"Holmium","V","Ar3d5","3d5","5/2","3d4 5D0",3.592,0.004,"L8672c99"
67,"Ho XLVI",45,22,"Holmium","Ti","Ar3d4","3d4","5D0","3d3 4F3/2",3.76,0.004,"L8672c99"
67,"Ho XLVII",46,21,"Holmium","Sc","Ar3d3","3d3","4F3/2","3d2 3F2",3.88,0.004,"L8672c99"
67,"Ho XLVIII",47,20,"Holmium","Ca","Ar3d2","3d2","3F2","3d 2D3/2",4.009,0.004,"L8672c99"
67,"Ho XLIX",48,19,"Holmium","K","Ar3d","3d","2D3/2","3p6 1S0",4.131,0.004,"L8672c99"
67,"Ho L",49,18,"Holmium","Ar","Ne3s23p6","3p6","1S0","3p5 2P°3/2",4.469,0.004,"L8672c99"
67,"Ho LI",50,17,"Holmium","Cl","Ne3s23p5","3p5","2P°3/2","3p4 3P2",4.576,0.004,"L8672c99"
67,"Ho LII",51,16,"Holmium","S","Ne3s23p4","3p4","3P2","3p3 2P°3/2",4.693,0.004,"L8672c99"
67,"Ho LIII",52,15,"Holmium","P","Ne3s23p3","3p3","2P°3/2","3p2 3P0",4.802,0.004,"L8672c99"
67,"Ho LIV",53,14,"Holmium","Si","Ne3s23p2","3p2","3P0","3p 2P°1/2",5.135,0.005,"L8672c99"
67,"Ho LV",54,13,"Holmium","Al","Ne3s23p","3p","2P°1/2","3s2 1S0",5.258,0.005,"L8672c99"
67,"Ho LVI",55,12,"Holmium","Mg","Ne3s2","3s2","1S0","3s 2S1/2",5.494,0.005,"L8672c99"
67,"Ho LVII",56,11,"Holmium","Na","Ne3s","3s","2S1/2","2p6 1S0",5.611,0.005,"L8672c99"
67,"Ho LVIII",57,10,"Holmium","Ne","1s22s22p6","2p6","1S0","2p5 2P°3/2",12.495,0.006,"L8672c99"
67,"Ho LIX",58,9,"Holmium","F","1s22s22p5","2p5","2P°3/2","2p4 3P2",12.79,0.006,"L8672c99"
67,"Ho LX",59,8,"Holmium","O","1s22s22p4","2p4","3P2","2p21/22p3/2 0,3/2°3/2",13.116,0.007,"L8672c99"
67,"Ho LXI",60,7,"Holmium","N","1s22s22p3","2p21/22p3/2","0,3/2°3/2","2p2 3P0",13.417,0.01,"L8672c99"
67,"Ho LXII",61,6,"Holmium","C","1s22s22p2","2p2","3P0","2p 2P°1/2",14.639,0.012,"L8672c99"
67,"Ho LXIII",62,5,"Holmium","B","1s22s22p","2p","2P°1/2","2s2 1S0",14.998,0.015,"L8672c99"
67,"Ho LXIV",63,4,"Holmium","Be","1s22s2","2s2","1S0","2s 2S1/2",15.448,0.019,"L8672c99"
67,"Ho LXV",64,3,"Holmium","Li","1s22s","2s","2S1/2","1s2 1S0",15.74577,0.00011,"L16264c99"
67,"Ho LXVI",65,2,"Holmium","He","1s2","1s2","1S0","1s 2S1/2",63.77243,0.00015,"L12128"
67,"Ho LXVII",66,1,"Holmium","H","1s","1s","2S1/2",NA,65.1368,4e-04,"L7188"
68,"Er I",0,68,"Erbium","Er","Xe4f126s2","4f126s2","3H6","4f123H5p66s 6,1/213/2",0.0061077,1e-06,"L4277"
68,"Er II",1,67,"Erbium","Ho","Xe4f126s","4f123H66s1/2","6,1/213/2","4f125p6 3H6",0.011916,2e-05,"L19870c180"
68,"Er III",2,66,"Erbium","Dy","Xe4f12","4f12","3H6","4f11 4I°15/2",0.0227,3e-05,"L19883c180"
68,"Er IV",3,65,"Erbium","Tb","Xe4f11","4f11","4I°15/2","4f105p6 5I8",0.04242,4e-05,"L19883c180"
68,"Er V",4,64,"Erbium","Gd","Xe4f10","4f105p6","5I8","4f105p5°",0.0651,4e-04,"L4095"
68,"Er VI",5,63,"Erbium","Eu","Cd4f105p5","4f105p5","°","4f105p4",0.096,0.005,"L582"
68,"Er VII",6,62,"Erbium","Sm","Cd4f105p4","4f105p4",NA,"4f105s25p3°",0.114,0.006,"L582"
68,"Er VIII",7,61,"Erbium","Pm","Cd4f105p3","4f105s25p3","°","4f105s25p2",0.131,0.007,"L582"
68,"Er IX",8,60,"Erbium","Nd","Cd4f105p2","4f105s25p2",NA,"4f105s25p°",0.158,0.008,"L582"
68,"Er X",9,59,"Erbium","Pr","Cd4f105p","4f105s25p","°","4f105s2",0.177,0.009,"L582"
68,"Er XI",10,58,"Erbium","Ce","Cd4f10","4f105s2",NA,"4f95s2°",0.201,0.01,"L582"
68,"Er XII",11,57,"Erbium","La","Cd4f9","4f95s2","°","4f85s2",0.235,0.011,"L582"
68,"Er XIII",12,56,"Erbium","Ba","Cd4f8","4f85s2",NA,"4f75s2°",0.268,0.014,"L582"
68,"Er XIV",13,55,"Erbium","Cs","Cd4f7","4f75s2","°","4f75s°",0.29,0.015,"L582"
68,"Er XV",14,54,"Erbium","Xe","Kr4d104f75s","4f75s","°","4f7 8S°7/2",0.311,0.016,"L582"
68,"Er XVI",15,53,"Erbium","I","Kr4d104f7","4f7","8S°7/2","4f6 7F0",0.345,0.017,"L582"
68,"Er XVII",16,52,"Erbium","Te","Kr4d104f6","4f6","7F0","4f5 6H°5/2",0.381,0.019,"L582"
68,"Er XVIII",17,51,"Erbium","Sb","Kr4d104f5","4f5","6H°5/2","4f4 5I4",0.415,0.021,"L582"
68,"Er XIX",18,50,"Erbium","Sn","Kr4d104f4","4f4","5I4","4f3 4I°9/2",0.45,0.022,"L582"
68,"Er XX",19,49,"Erbium","In","Kr4d104f3","4f3","4I°9/2","4f2 3H4",0.486,0.025,"L582"
68,"Er XXI",20,48,"Erbium","Cd","Kr4d104f2","4f2","3H4","4f 2F°5/2",0.52,0.03,"L582"
68,"Er XXII",21,47,"Erbium","Ag","Kr4d104f","4f","2F°5/2","4d10 1S0",0.555,0.005,"L582c99"
68,"Er XXIII",22,46,"Erbium","Pd","Kr4d10","4d10","1S0","4d9 2D5/2",0.77,0.004,"L8672c99"
68,"Er XXIV",23,45,"Erbium","Rh","Kr4d9","4d9","2D5/2","4d8 3F4",0.81,0.004,"L8672c99"
68,"Er XXV",24,44,"Erbium","Ru","Kr4d8","4d8","3F4","4d7 4F9/2",0.853,0.004,"L8672c99"
68,"Er XXVI",25,43,"Erbium","Tc","Kr4d7","4d7","4F9/2","4d6 5D4",0.899,0.004,"L8672c99"
68,"Er XXVII",26,42,"Erbium","Mo","Kr4d6","4d6","5D4","4d5 6S5/2",0.943,0.004,"L8672c99"
68,"Er XXVIII",27,41,"Erbium","Nb","Kr4d5","4d5","6S5/2","4d4 5D0",0.989,0.004,"L8672c99"
68,"Er XXIX",28,40,"Erbium","Zr","Kr4d4","4d4","5D0","4d3 4F3/2",1.046,0.004,"L8672c99"
68,"Er XXX",29,39,"Erbium","Y","Kr4d3","4d3","4F3/2","4d2 3F2",1.092,0.004,"L8672c99"
68,"Er XXXI",30,38,"Erbium","Sr","Kr4d2","4d2","3F2","4d 2D3/2",1.142,0.004,"L8672c99"
68,"Er XXXII",31,37,"Erbium","Rb","Kr4d","4d","2D3/2","4p6 1S0",1.188,0.004,"L8672c99"
68,"Er XXXIII",32,36,"Erbium","Kr","Ar3d104s24p6","4p6","1S0","4p5 2P°3/2",1.37,0.004,"L8672c99"
68,"Er XXXIV",33,35,"Erbium","Br","Ar3d104s24p5","4p5","2P°3/2","4p4 3P2",1.416,0.005,"L8672c99"
68,"Er XXXV",34,34,"Erbium","Se","Ar3d104s24p4","4p4","3P2","4p3 4S°3/2",1.468,0.005,"L8672c99"
68,"Er XXXVI",35,33,"Erbium","As","Ar3d104s24p3","4p3","4S°3/2","4p2 3P0",1.516,0.005,"L8672c99"
68,"Er XXXVII",36,32,"Erbium","Ge","Ar3d104s24p2","4p2","3P0","4p 2P°1/2",1.625,0.005,"L8672c99"
68,"Er XXXVIII",37,31,"Erbium","Ga","Ar3d104s24p","4p","2P°1/2","4s2 1S0",1.678,0.004,"L8672c99"
68,"Er XXXIX",38,30,"Erbium","Zn","Ar3d104s2","4s2","1S0","4s 2S1/2",1.803,0.004,"L8672c99"
68,"Er XL",39,29,"Erbium","Cu","Ar3d104s","4s","2S1/2","3d10 1S0",1.8585,5e-04,"L5473"
68,"Er XLI",40,28,"Erbium","Ni","Ar3d10","3d10","1S0","3d9 2D5/2",3.157,0.004,"L8672c99"
68,"Er XLII",41,27,"Erbium","Co","Ar3d9","3d9","2D5/2","3d8 3F4",3.265,0.004,"L8672c99"
68,"Er XLIII",42,26,"Erbium","Fe","Ar3d8","3d8","3F4","3d7 4F9/2",3.381,0.004,"L8672c99"
68,"Er XLIV",43,25,"Erbium","Mn","Ar3d7","3d7","4F9/2","3d6 4",3.505,0.004,"L8672c99"
68,"Er XLV",44,24,"Erbium","Cr","Ar3d6","3d6","4","3d5 5/2",3.624,0.004,"L8672c99"
68,"Er XLVI",45,23,"Erbium","V","Ar3d5","3d5","5/2","3d4 5D0",3.742,0.004,"L8672c99"
68,"Er XLVII",46,22,"Erbium","Ti","Ar3d4","3d4","5D0","3d3 4F3/2",3.916,0.004,"L8672c99"
68,"Er XLVIII",47,21,"Erbium","Sc","Ar3d3","3d3","4F3/2","3d2 3F2",4.038,0.004,"L8672c99"
68,"Er XLIX",48,20,"Erbium","Ca","Ar3d2","3d2","3F2","3d 2D3/2",4.17,0.004,"L8672c99"
68,"Er L",49,19,"Erbium","K","Ar3d","3d","2D3/2","3p6 1S0",4.294,0.004,"L8672c99"
68,"Er LI",50,18,"Erbium","Ar","Ne3s23p6","3p6","1S0","3p5 2P°3/2",4.639,0.004,"L8672c99"
68,"Er LII",51,17,"Erbium","Cl","Ne3s23p5","3p5","2P°3/2","3p4 3P2",4.748,0.004,"L8672c99"
68,"Er LIII",52,16,"Erbium","S","Ne3s23p4","3p4","3P2","3p3 2P°3/2",4.866,0.004,"L8672c99"
68,"Er LIV",53,15,"Erbium","P","Ne3s23p3","3p3","2P°3/2","3p2 3P0",4.978,0.005,"L8672c99"
68,"Er LV",54,14,"Erbium","Si","Ne3s23p2","3p2","3P0","3p 2P°1/2",5.329,0.005,"L8672c99"
68,"Er LVI",55,13,"Erbium","Al","Ne3s23p","3p","2P°1/2","3s2 1S0",5.455,0.005,"L8672c99"
68,"Er LVII",56,12,"Erbium","Mg","Ne3s2","3s2","1S0","3s 2S1/2",5.695,0.005,"L8672c99"
68,"Er LVIII",57,11,"Erbium","Na","Ne3s","3s","2S1/2","2p6 1S0",5.815,0.006,"L8672c99"
68,"Er LIX",58,10,"Erbium","Ne","1s22s22p6","2p6","1S0","2p5 2P°3/2",12.918,0.006,"L8672c99"
68,"Er LX",59,9,"Erbium","F","1s22s22p5","2p5","2P°3/2","2p4 3P2",13.217,0.007,"L8672c99"
68,"Er LXI",60,8,"Erbium","O","1s22s22p4","2p4","3P2","2p21/22p3/2 0,3/2°3/2",13.548,0.01,"L8672c99"
68,"Er LXII",61,7,"Erbium","N","1s22s22p3","2p21/22p3/2","0,3/2°3/2","2p2 3P0",13.855,0.012,"L8672c99"
68,"Er LXIII",62,6,"Erbium","C","1s22s22p2","2p2","3P0","2p 2P°1/2",15.146,0.015,"L8672c99"
68,"Er LXIV",63,5,"Erbium","B","1s22s22p","2p","2P°1/2","2s2 1S0",15.511,0.019,"L8672c99"
68,"Er LXV",64,4,"Erbium","Be","1s22s2","2s2","1S0","2s 2S1/2",15.971,0.024,"L8672c99"
68,"Er LXVI",65,3,"Erbium","Li","1s22s","2s","2S1/2","1s2 1S0",16.27456,0.00012,"L16264c99"
68,"Er LXVII",66,2,"Erbium","He","1s2","1s2","1S0","1s 2S1/2",65.84824,6e-05,"L12128"
68,"Er LXVIII",67,1,"Erbium","H","1s","1s","2S1/2",NA,67.2419,4e-04,"L7188"
69,"Tm I",0,69,"Thulium","Tm","Xe4f136s2","4f132F°6s2","2F°7/2","4f136s 7/2,1/2°4",0.00618431,6e-08,"L3974,L946"
69,"Tm II",1,68,"Thulium","Er","Xe4f136s","4f132F°7/26s1/2","7/2,1/2°4","4f135p6 2F°7/2",0.012065,2e-05,"L19870c180"
69,"Tm III",2,67,"Thulium","Ho","Xe4f13","4f13","2F°7/2","4f125p6 3H6",0.02366,3e-05,"L19883c180"
69,"Tm IV",3,66,"Thulium","Dy","Xe4f12","4f12","3H6","4f11 4I°15/2",0.04241,4e-05,"L19883c180"
69,"Tm V",4,65,"Thulium","Tb","Xe4f11","4f115p6","4I°15/2","4f115p5 5I8",0.0654,3e-04,"L4095"
69,"Tm VI",5,64,"Thulium","Gd","Cd4f115p5","4f115p5","5I8","4f115p4°",0.098,0.005,"L582"
69,"Tm VII",6,63,"Thulium","Eu","Cd4f115p4","4f115p4","°","4f115p3",0.116,0.006,"L582"
69,"Tm VIII",7,62,"Thulium","Sm","Cd4f115p3","4f115p3",NA,"4f115s25p2°",0.133,0.007,"L582"
69,"Tm IX",8,61,"Thulium","Pm","Cd4f115p2","4f115s25p2","°","4f115s25p",0.16,0.008,"L582"
69,"Tm X",9,60,"Thulium","Nd","Cd4f115p","4f115s25p",NA,"4f115s2 4I°15/2",0.18,0.009,"L582"
69,"Tm XI",10,59,"Thulium","Pr","Cd4f11","4f115s2","4I°15/2","4f105s2",0.205,0.01,"L582"
69,"Tm XII",11,58,"Thulium","Ce","Cd4f10","4f105s2",NA,"4f95s2°",0.239,0.012,"L582"
69,"Tm XIII",12,57,"Thulium","La","Cd4f9","4f95s2","°","4f95s°",0.274,0.014,"L582"
69,"Tm XIV",13,56,"Thulium","Ba","Kr4d104f95s","4f95s","°","4f9 6H°15/2",0.295,0.015,"L582"
69,"Tm XV",14,55,"Thulium","Cs","Kr4d104f9","4f9","6H°15/2","4f8 7F6",0.317,0.016,"L582"
69,"Tm XVI",15,54,"Thulium","Xe","Kr4d104f8","4f8","7F6","4f7 8S°7/2",0.352,0.017,"L582"
69,"Tm XVII",16,53,"Thulium","I","Kr4d104f7","4f7","8S°7/2","4f6 7F0",0.387,0.02,"L582"
69,"Tm XVIII",17,52,"Thulium","Te","Kr4d104f6","4f6","7F0","4f5 6H°5/2",0.424,0.021,"L582"
69,"Tm XIX",18,51,"Thulium","Sb","Kr4d104f5","4f5","6H°5/2","4f4 5I4",0.46,0.024,"L582"
69,"Tm XX",19,50,"Thulium","Sn","Kr4d104f4","4f4","5I4","4f3 4I°9/2",0.496,0.025,"L582"
69,"Tm XXI",20,49,"Thulium","In","Kr4d104f3","4f3","4I°9/2","4f2 3H4",0.53,0.03,"L582"
69,"Tm XXII",21,48,"Thulium","Cd","Kr4d104f2","4f2","3H4","4f 2F°5/2",0.57,0.03,"L582"
69,"Tm XXIII",22,47,"Thulium","Ag","Kr4d104f","4f","2F°5/2","4d10 1S0",0.603,0.006,"L582c99"
69,"Tm XXIV",23,46,"Thulium","Pd","Kr4d10","4d10","1S0","4d9 2D5/2",0.825,0.004,"L8672c99"
69,"Tm XXV",24,45,"Thulium","Rh","Kr4d9","4d9","2D5/2","4d8 3F4",0.866,0.004,"L8672c99"
69,"Tm XXVI",25,44,"Thulium","Ru","Kr4d8","4d8","3F4","4d7 4F9/2",0.911,0.004,"L8672c99"
69,"Tm XXVII",26,43,"Thulium","Tc","Kr4d7","4d7","4F9/2","4d6 5D4",0.958,0.004,"L8672c99"
69,"Tm XXVIII",27,42,"Thulium","Mo","Kr4d6","4d6","5D4","4d5 6S5/2",1.004,0.004,"L8672c99"
69,"Tm XXIX",28,41,"Thulium","Nb","Kr4d5","4d5","6S5/2","4d4 5D0",1.05,0.004,"L8672c99"
69,"Tm XXX",29,40,"Thulium","Zr","Kr4d4","4d4","5D0","4d3 4F3/2",1.11,0.004,"L8672c99"
69,"Tm XXXI",30,39,"Thulium","Y","Kr4d3","4d3","4F3/2","4d2 3F2",1.157,0.004,"L8672c99"
69,"Tm XXXII",31,38,"Thulium","Sr","Kr4d2","4d2","3F2","4d 2D3/2",1.207,0.004,"L8672c99"
69,"Tm XXXIII",32,37,"Thulium","Rb","Kr4d","4d","2D3/2","4p6 1S0",1.255,0.004,"L8672c99"
69,"Tm XXXIV",33,36,"Thulium","Kr","Ar3d104s24p6","4p6","1S0","4p5 2P°3/2",1.442,0.005,"L8672c99"