"Z","Species","CS","Occ","Element","Iso_elec","Ground_Shells","Ground_Config","Ground_Level","Ionized_Level","IE","IE_uncertainty","References"
106,"Sg CV",104,2,"Seaborgium","He","1s2","1s2","1S0","1s 2S1/2",NA,NA,NA
106,"Sg CVI",105,1,"Seaborgium","H","1s","1s","2S1/2",NA,185.839,0.01,"L7188"
107,"Bh I",0,107,"Bohrium","Bh","Rn5f146d57s2","6d57s2","5/2","6d47s2 0",0.0077,5e-04,"L13544"
107,"Bh II",1,106,"Bohrium","Sg","Rn5f146d47s2","6d47s2","0","6d47s 1/2",0.0175,5e-04,"L13544"
107,"Bh III",2,105,"Bohrium","Db","Rn5f146d47s","6d47s","1/2","6d4 0",0.0267,5e-04,"L13544"
107,"Bh IV",3,104,"Bohrium","Rf","Rn5f146d4","6d4","0","6d3 3/2",0.0373,5e-04,"L13544"
107,"Bh V",4,103,"Bohrium","Lr","Rn5f146d3","6d3","3/2","6d2 2",0.049,5e-04,"L13544"
107,"Bh VI",5,102,"Bohrium","No","Rn5f146d2","6d2","2","5f146d 2D3/2",0.0621,5e-04,"L13544"
107,"Bh VII",6,101,"Bohrium","Md","Rn5f146d","5f146d","2D3/2","5f14 1S0",0.0749,5e-04,"L13544"
107,"Bh VIII",7,100,"Bohrium","Fm","Rn5f14","5f14","1S0","5f13 2F°7/2",0.134,0.0021,"L8672c99"
107,"Bh IX",8,99,"Bohrium","Es","Rn5f13","5f13","2F°7/2","5f12 3H6",0.148,0.0022,"L8672c99"
107,"Bh X",9,98,"Bohrium","Cf","Rn5f12","5f12","3H6","5f11 4I°15/2",0.178,0.0022,"L8672c99"
107,"Bh XI",10,97,"Bohrium","Bk","Rn5f11","5f11","4I°15/2","5f10 5I8",0.198,0.0024,"L8672c99"
107,"Bh XII",11,96,"Bohrium","Cm","Rn5f10","5f10","5I8","5f9 6H°15/2",0.228,0.0025,"L8672c99"
107,"Bh XIII",12,95,"Bohrium","Am","Rn5f9","5f9","6H°15/2","5f8 7F6",0.255,0.003,"L8672c99"
107,"Bh XIV",13,94,"Bohrium","Pu","Rn5f8","5f8","7F6","5f7 8S°7/2",0.281,0.003,"L8672c99"
107,"Bh XV",14,93,"Bohrium","Np","Rn5f7","5f7","8S°7/2","5f6 7F0",0.318,0.003,"L8672c99"
107,"Bh XVI",15,92,"Bohrium","U","Rn5f6","5f6","7F0","5f5 6H°5/2",0.337,0.003,"L8672c99"
107,"Bh XVII",16,91,"Bohrium","Pa","Rn5f5","5f5","6H°5/2","5f4 5I4",0.374,0.003,"L8672c99"
107,"Bh XVIII",17,90,"Bohrium","Th","Rn5f4","5f4","5I4",NA,NA,NA,NA
107,"Bh XXX",29,78,"Bohrium","Pt","Xe4f145d10","5d10","1S0","5d9 2D5/2",0.934,0.004,"L8672c99"
107,"Bh XXXI",30,77,"Bohrium","Ir","Xe4f145d9","5d9","2D5/2","5d8 3F4",0.969,0.004,"L8672c99"
107,"Bh XXXII",31,76,"Bohrium","Os","Xe4f145d8","5d8","3F4","5d7 4F9/2",1.008,0.004,"L8672c99"
107,"Bh XXXIII",32,75,"Bohrium","Re","Xe4f145d7","5d7","4F9/2","5d6 5D4",1.049,0.004,"L8672c99"
107,"Bh XXXIV",33,74,"Bohrium","W","Xe4f145d6","5d6","5D4","5d5 6S5/2",1.088,0.005,"L8672c99"
107,"Bh XXXV",34,73,"Bohrium","Ta","Xe4f145d5","5d5","6S5/2","5d4 5D0",1.126,0.005,"L8672c99"
107,"Bh XXXVI",35,72,"Bohrium","Hf","Xe4f145d4","5d4","5D0","5d3 4F3/2",1.197,0.005,"L8672c99"
107,"Bh XXXVII",36,71,"Bohrium","Lu","Xe4f145d3","5d3","4F3/2","5d2 3F2",1.237,0.005,"L8672c99"
107,"Bh XXXVIII",37,70,"Bohrium","Yb","Xe4f145d2","5d2","3F2","5d 2D3/2",1.28,0.004,"L8672c99"
107,"Bh XXXIX",38,69,"Bohrium","Tm","Xe4f145d","5d","2D3/2","4f14 1S0",1.32,0.004,"L8672c99"
107,"Bh XL",39,68,"Bohrium","Er","Xe4f14","4f14","1S0","4f145p5 2P°3/2",NA,NA,NA
107,"Bh XLI",40,67,"Bohrium","Ho","Cd4f145p5","4f145p5","2P°3/2","4f145p4 3P2",NA,NA,NA
107,"Bh XLII",41,66,"Bohrium","Dy","Cd4f145p4","4f145p4","3P2","4f145p3 2P°3/2",NA,NA,NA
107,"Bh XLIII",42,65,"Bohrium","Tb","Cd4f145p3","4f145p3","2P°3/2","4f145p2 3P0",NA,NA,NA
107,"Bh XLIV",43,64,"Bohrium","Gd","Cd4f145p2","4f145p2","3P0","4f145p 2P°1/2",NA,NA,NA
107,"Bh XLV",44,63,"Bohrium","Eu","Cd4f145p","4f145p","2P°1/2","4f14 1S0",NA,NA,NA
107,"Bh XLVI",45,62,"Bohrium","Sm","Cd4f14","4f14","1S0","4f145s 2S1/2",NA,NA,NA
107,"Bh XLVII",46,61,"Bohrium","Pm","Kr4d104f145s","4f145s","2S1/2","4f14 1S0",NA,NA,NA
107,"Bh XLVIII",47,60,"Bohrium","Nd","Kr4d104f14","4f14","1S0","4f13 2F°7/2",NA,NA,NA
107,"Bh XLIX",48,59,"Bohrium","Pr","Kr4d104f13","4f13","2F°7/2","4f12",NA,NA,NA
107,"Bh L",49,58,"Bohrium","Ce","Kr4d104f12","4f12",NA,"4f11 4I°15/2",NA,NA,NA
107,"Bh LI",50,57,"Bohrium","La","Kr4d104f11","4f11","4I°15/2","4f10 5I8",NA,NA,NA
107,"Bh LII",51,56,"Bohrium","Ba","Kr4d104f10","4f10","5I8","4f9 6H°15/2",NA,NA,NA
107,"Bh LIII",52,55,"Bohrium","Cs","Kr4d104f9","4f9","6H°15/2","4f8 7F6",NA,NA,NA
107,"Bh LIV",53,54,"Bohrium","Xe","Kr4d104f8","4f8","7F6","4f7 8S°7/2",NA,NA,NA
107,"Bh LV",54,53,"Bohrium","I","Kr4d104f7","4f7","8S°7/2","4f6 7F0",NA,NA,NA
107,"Bh LVI",55,52,"Bohrium","Te","Kr4d104f6","4f6","7F0","4f5 6H°5/2",NA,NA,NA
107,"Bh LVII",56,51,"Bohrium","Sb","Kr4d104f5","4f5","6H°5/2","4f4 5I4",NA,NA,NA
107,"Bh LVIII",57,50,"Bohrium","Sn","Kr4d104f4","4f4","5I4","4f3 4I°9/2",NA,NA,NA
107,"Bh LIX",58,49,"Bohrium","In","Kr4d104f3","4f3","4I°9/2","4f2 3H4",NA,NA,NA
107,"Bh LX",59,48,"Bohrium","Cd","Kr4d104f2","4f2","3H4","4f 2F°5/2",NA,NA,NA
107,"Bh LXI",60,47,"Bohrium","Ag","Kr4d104f","4f","2F°5/2","4d10 1S0",NA,NA,NA
107,"Bh LXII",61,46,"Bohrium","Pd","Kr4d10","4d10","1S0","4d9 2D5/2",4.216,0.012,"L8672c99"
107,"Bh LXIII",62,45,"Bohrium","Rh","Kr4d9","4d9","2D5/2","4d8 3F4",4.301,0.015,"L8672c99"
107,"Bh LXIV",63,44,"Bohrium","Ru","Kr4d8","4d8","3F4","4d7 4F9/2",4.39,0.019,"L8672c99"
107,"Bh LXV",64,43,"Bohrium","Tc","Kr4d7","4d7","4F9/2","4d6 5D4",4.486,0.024,"L8672c99"
107,"Bh LXVI",65,42,"Bohrium","Mo","Kr4d6","4d6","5D4","4d5 5/2",4.58,0.03,"L8672c99"
107,"Bh LXVII",66,41,"Bohrium","Nb","Kr4d5","4d5","5/2","4d4 5D0",4.66,0.04,"L8672c99"
107,"Bh LXVIII",67,40,"Bohrium","Zr","Kr4d4","4d4","5D0","4d3 4F3/2",4.89,0.04,"L8672c99"
107,"Bh LXIX",68,39,"Bohrium","Y","Kr4d3","4d3","4F3/2","4d2 3F2",4.98,0.05,"L8672c99"
107,"Bh LXX",69,38,"Bohrium","Sr","Kr4d2","4d2","3F2","4d 2D3/2",5.08,0.05,"L8672c99"
107,"Bh LXXI",70,37,"Bohrium","Rb","Kr4d","4d","2D3/2","4p6 1S0",5.17,0.06,"L8672c99"
107,"Bh LXXII",71,36,"Bohrium","Kr","Ar3d104s24p6","4p6","1S0","4p5 2P°3/2",5.55,0.06,"L8672c99"
107,"Bh LXXIII",72,35,"Bohrium","Br","Ar3d104s24p5","4p5","2P°3/2","4p4 3P2",5.64,0.07,"L8672c99"
107,"Bh LXXIV",73,34,"Bohrium","Se","Ar3d104s24p4","4p4","3P2","4p3°3/2",5.74,0.09,"L8672c99"
107,"Bh LXXV",74,33,"Bohrium","As","Ar3d104s24p3","4p3","°3/2","4p2 3P0",5.83,0.09,"L8672c99"
107,"Bh LXXVI",75,32,"Bohrium","Ge","Ar3d104s24p2","4p2","3P0","4p 2P°1/2",6.65,0.1,"L8672c99"
107,"Bh LXXVII",76,31,"Bohrium","Ga","Ar3d104s24p","4p","2P°1/2","4s2 1S0",6.76,0.11,"L8672c99"
107,"Bh LXXVIII",77,30,"Bohrium","Zn","Ar3d104s2","4s2","1S0","4s 2S1/2",7.04,0.12,"L8672c99"
107,"Bh LXXIX",78,29,"Bohrium","Cu","Ar3d104s","4s","2S1/2","3d10 1S0",7.14,0.12,"L8672c99"
107,"Bh LXXX",79,28,"Bohrium","Ni","Ar3d10","3d10","1S0","3d9 2D5/2",10.93,0.14,"L8672c99"
107,"Bh LXXXI",80,27,"Bohrium","Co","Ar3d9","3d9","2D5/2","3d8 3F4",11.13,0.15,"L8672c99"
107,"Bh LXXXII",81,26,"Bohrium","Fe","Ar3d8","3d8","3F4","3d7 4F9/2",11.34,0.16,"L8672c99"
107,"Bh LXXXIII",82,25,"Bohrium","Mn","Ar3d7","3d7","4F9/2","3d6 4",11.56,0.17,"L8672c99"
107,"Bh LXXXIV",83,24,"Bohrium","Cr","Ar3d6","3d6","4","3d5 5/2",11.78,0.19,"L8672c99"
107,"Bh LXXXV",84,23,"Bohrium","V","Ar3d5","3d5","5/2","3d4 5D0",11.98,0.2,"L8672c99"
107,"Bh LXXXVI",85,22,"Bohrium","Ti","Ar3d4","3d4","5D0","3d3 4F3/2",12.61,0.22,"L8672c99"
107,"Bh LXXXVII",86,21,"Bohrium","Sc","Ar3d3","3d3","4F3/2","3d2 3F2",12.83,0.24,"L8672c99"
107,"Bh LXXXVIII",87,20,"Bohrium","Ca","Ar3d2","3d2","3F2","3d 2D3/2",13.07,0.25,"L8672c99"
107,"Bh LXXXIX",88,19,"Bohrium","K","Ar3d","3d","2D3/2","3p6 1S0",13.3,0.3,"L8672c99"
107,"Bh XC",89,18,"Bohrium","Ar","Ne3s23p6","3p6","1S0","3p5 2P°3/2",13.9,0.3,"L8672c99"
107,"Bh XCI",90,17,"Bohrium","Cl","Ne3s23p5","3p5","2P°3/2","3p4 3P2",14.1,0.3,"L8672c99"
107,"Bh XCII",91,16,"Bohrium","S","Ne3s23p4","3p4","3P2","3p3 2P°3/2",14.3,0.3,"L8672c99"
107,"Bh XCIII",92,15,"Bohrium","P","Ne3s23p3","3p3","2P°3/2","3p2 3P0",14.5,0.4,"L8672c99"
107,"Bh XCIV",93,14,"Bohrium","Si","Ne3s23p2","3p2","3P0","3p 2P°1/2",17,0.4,"L8672c99"
107,"Bh XCV",94,13,"Bohrium","Al","Ne3s23p","3p","2P°1/2","3s2 1S0",17.3,0.4,"L8672c99"
107,"Bh XCVI",95,12,"Bohrium","Mg","Ne3s2","3s2","1S0","3s 2S1/2",17.7,0.4,"L8672c99"
107,"Bh XCVII",96,11,"Bohrium","Na","Ne3s","3s","2S1/2","2p6 1S0",18,0.4,"L8672c99"
107,"Bh XCVIII",97,10,"Bohrium","Ne","1s22s22p6","2p6","1S0","2p5 2P°3/2",35.2,0.4,"L8672c99"
107,"Bh XCIX",98,9,"Bohrium","F","1s22s22p5","2p5","2P°3/2","2p4 3P2",35.7,0.5,"L8672c99"
107,"Bh C",99,8,"Bohrium","O","1s22s22p4","2p4","3P2","2p21/22p3/2 0,3/2°3/2",36.3,0.5,"L8672c99"
107,"Bh CI",100,7,"Bohrium","N","1s22s22p3","2p21/22p3/2","0,3/2°3/2","2p2 3P0",36.8,0.5,"L8672c99"
107,"Bh CII",101,6,"Bohrium","C","1s22s22p2","2p2","3P0","2p 2P°1/2",46.1,0.5,"L8672c99"
107,"Bh CIII",102,5,"Bohrium","B","1s22s22p","2p","2P°1/2","2s2 1S0",46.9,0.5,"L8672c99"
107,"Bh CIV",103,4,"Bohrium","Be","1s22s2","2s2","1S0","2s 2S1/2",47.8,0.5,"L8672c99"
107,"Bh CV",104,3,"Bohrium","Li","1s22s","2s","2S1/2","1s2 1S0",NA,NA,NA
107,"Bh CVI",105,2,"Bohrium","He","1s2","1s2","1S0","1s 2S1/2",NA,NA,NA
107,"Bh CVII",106,1,"Bohrium","H","1s","1s","2S1/2",NA,190.331,0.011,"L7188"
108,"Hs I",0,108,"Hassium","Hs","Rn5f146d67s2","6d67s2","4","6d57s2 5/2",0.0076,5e-04,"L13544"
108,"Hs II",1,107,"Hassium","Bh","Rn5f146d57s2","6d57s2","5/2","6d57s 3",0.0182,5e-04,"L13544"
108,"Hs III",2,106,"Hassium","Sg","Rn5f146d57s","6d57s","3","6d47s 1/2",0.0293,5e-04,"L13544"
108,"Hs IV",3,105,"Hassium","Db","Rn5f146d47s","6d47s","1/2","6d4 0",0.0377,5e-04,"L13544"
108,"Hs V",4,104,"Hassium","Rf","Rn5f146d4","6d4","0","6d3 3/2",0.0512,5e-04,"L13544"
108,"Hs VI",5,103,"Hassium","Lr","Rn5f146d3","6d3","3/2","6d2 2",0.064,5e-04,"L13544"
108,"Hs VII",6,102,"Hassium","No","Rn5f146d2","6d2","2","5f146d 2D3/2",0.0781,5e-04,"L13544"
108,"Hs VIII",7,101,"Hassium","Md","Rn5f146d","5f146d","2D3/2","5f14 1S0",0.0917,5e-04,"L13544"
108,"Hs IX",8,100,"Hassium","Fm","Rn5f14","5f14","1S0","5f13 2F°7/2",0.1599,0.0022,"L8672c99"
108,"Hs X",9,99,"Hassium","Es","Rn5f13","5f13","2F°7/2","5f12 3H6",0.1739,0.0022,"L8672c99"
108,"Hs XI",10,98,"Hassium","Cf","Rn5f12","5f12","3H6","5f11 4I°15/2",0.2061,0.0024,"L8672c99"
108,"Hs XII",11,97,"Hassium","Bk","Rn5f11","5f11","4I°15/2","5f10 5I8",0.227,0.0025,"L8672c99"
108,"Hs XIII",12,96,"Hassium","Cm","Rn5f10","5f10","5I8","5f9 6H°15/2",0.258,0.003,"L8672c99"
108,"Hs XIV",13,95,"Hassium","Am","Rn5f9","5f9","6H°15/2","5f8 7F6",0.285,0.003,"L8672c99"
108,"Hs XV",14,94,"Hassium","Pu","Rn5f8","5f8","7F6","5f7 8S°7/2",0.314,0.003,"L8672c99"
108,"Hs XVI",15,93,"Hassium","Np","Rn5f7","5f7","8S°7/2","5f6 7F0",0.351,0.003,"L8672c99"
108,"Hs XVII",16,92,"Hassium","U","Rn5f6","5f6","7F0","5f5 6H°5/2",0.371,0.003,"L8672c99"
108,"Hs XVIII",17,91,"Hassium","Pa","Rn5f5","5f5","6H°5/2","5f4 5I4",0.409,0.003,"L8672c99"
108,"Hs XIX",18,90,"Hassium","Th","Rn5f4","5f4","5I4",NA,NA,NA,NA
108,"Hs XXXI",30,78,"Hassium","Pt","Xe4f145d10","5d10","1S0","5d9 2D5/2",0.984,0.004,"L8672c99"
108,"Hs XXXII",31,77,"Hassium","Ir","Xe4f145d9","5d9","2D5/2","5d8 3F4",1.02,0.004,"L8672c99"
108,"Hs XXXIII",32,76,"Hassium","Os","Xe4f145d8","5d8","3F4","5d7 4F9/2",1.06,0.004,"L8672c99"
108,"Hs XXXIV",33,75,"Hassium","Re","Xe4f145d7","5d7","4F9/2","5d6 5D4",1.101,0.005,"L8672c99"
108,"Hs XXXV",34,74,"Hassium","W","Xe4f145d6","5d6","5D4","5d5 6S5/2",1.14,0.005,"L8672c99"
108,"Hs XXXVI",35,73,"Hassium","Ta","Xe4f145d5","5d5","6S5/2","5d4 5D0",1.18,0.005,"L8672c99"
108,"Hs XXXVII",36,72,"Hassium","Hf","Xe4f145d4","5d4","5D0","5d3 4F3/2",1.253,0.005,"L8672c99"
108,"Hs XXXVIII",37,71,"Hassium","Lu","Xe4f145d3","5d3","4F3/2","5d2 3F2",1.294,0.004,"L8672c99"
108,"Hs XXXIX",38,70,"Hassium","Yb","Xe4f145d2","5d2","3F2","5d 2D3/2",1.338,0.004,"L8672c99"
108,"Hs XL",39,69,"Hassium","Tm","Xe4f145d","5d","2D3/2","4f14 1S0",1.379,0.004,"L8672c99"
108,"Hs XLI",40,68,"Hassium","Er","Xe4f14","4f14","1S0","4f145p5 2P°3/2",NA,NA,NA
108,"Hs XLII",41,67,"Hassium","Ho","Cd4f145p5","4f145p5","2P°3/2","4f145p4 3P2",NA,NA,NA
108,"Hs XLIII",42,66,"Hassium","Dy","Cd4f145p4","4f145p4","3P2","4f145p3 2P°3/2",NA,NA,NA
108,"Hs XLIV",43,65,"Hassium","Tb","Cd4f145p3","4f145p3","2P°3/2","4f145p2 3P0",NA,NA,NA
108,"Hs XLV",44,64,"Hassium","Gd","Cd4f145p2","4f145p2","3P0","4f145p 2P°1/2",NA,NA,NA
108,"Hs XLVI",45,63,"Hassium","Eu","Cd4f145p","4f145p","2P°1/2","4f14 1S0",NA,NA,NA
108,"Hs XLVII",46,62,"Hassium","Sm","Cd4f14","4f14","1S0","4f145s 2S1/2",NA,NA,NA
108,"Hs XLVIII",47,61,"Hassium","Pm","Kr4d104f145s","4f145s","2S1/2","4f14 1S0",NA,NA,NA
108,"Hs XLIX",48,60,"Hassium","Nd","Kr4d104f14","4f14","1S0","4f13 2F°7/2",NA,NA,NA
108,"Hs L",49,59,"Hassium","Pr","Kr4d104f13","4f13","2F°7/2","4f12",NA,NA,NA
108,"Hs LI",50,58,"Hassium","Ce","Kr4d104f12","4f12",NA,"4f11 4I°15/2",NA,NA,NA
108,"Hs LII",51,57,"Hassium","La","Kr4d104f11","4f11","4I°15/2","4f10 5I8",NA,NA,NA
108,"Hs LIII",52,56,"Hassium","Ba","Kr4d104f10","4f10","5I8","4f9 6H°15/2",NA,NA,NA
108,"Hs LIV",53,55,"Hassium","Cs","Kr4d104f9","4f9","6H°15/2","4f8 7F6",NA,NA,NA
108,"Hs LV",54,54,"Hassium","Xe","Kr4d104f8","4f8","7F6","4f7 8S°7/2",NA,NA,NA
108,"Hs LVI",55,53,"Hassium","I","Kr4d104f7","4f7","8S°7/2","4f6 7F0",NA,NA,NA
108,"Hs LVII",56,52,"Hassium","Te","Kr4d104f6","4f6","7F0","4f5 6H°5/2",NA,NA,NA
108,"Hs LVIII",57,51,"Hassium","Sb","Kr4d104f5","4f5","6H°5/2","4f4 5I4",NA,NA,NA
108,"Hs LIX",58,50,"Hassium","Sn","Kr4d104f4","4f4","5I4","4f3 4I°9/2",NA,NA,NA
108,"Hs LX",59,49,"Hassium","In","Kr4d104f3","4f3","4I°9/2","4f2 3H4",NA,NA,NA
108,"Hs LXI",60,48,"Hassium","Cd","Kr4d104f2","4f2","3H4","4f 2F°5/2",NA,NA,NA
108,"Hs LXII",61,47,"Hassium","Ag","Kr4d104f","4f","2F°5/2","4d10 1S0",NA,NA,NA
108,"Hs LXIII",62,46,"Hassium","Pd","Kr4d10","4d10","1S0","4d9 2D5/2",4.339,0.015,"L8672c99"
108,"Hs LXIV",63,45,"Hassium","Rh","Kr4d9","4d9","2D5/2","4d8 3F4",4.425,0.019,"L8672c99"
108,"Hs LXV",64,44,"Hassium","Ru","Kr4d8","4d8","3F4","4d7 4F9/2",4.516,0.024,"L8672c99"
108,"Hs LXVI",65,43,"Hassium","Tc","Kr4d7","4d7","4F9/2","4d6 5D4",4.61,0.03,"L8672c99"
108,"Hs LXVII",66,42,"Hassium","Mo","Kr4d6","4d6","5D4","4d5 5/2",4.7,0.04,"L8672c99"
108,"Hs LXVIII",67,41,"Hassium","Nb","Kr4d5","4d5","5/2","4d4 5D0",4.79,0.04,"L8672c99"
108,"Hs LXIX",68,40,"Hassium","Zr","Kr4d4","4d4","5D0","4d3 4F3/2",5.02,0.05,"L8672c99"
108,"Hs LXX",69,39,"Hassium","Y","Kr4d3","4d3","4F3/2","4d2 3F2",5.11,0.05,"L8672c99"
108,"Hs LXXI",70,38,"Hassium","Sr","Kr4d2","4d2","3F2","4d 2D3/2",5.22,0.06,"L8672c99"
108,"Hs LXXII",71,37,"Hassium","Rb","Kr4d","4d","2D3/2","4p6 1S0",5.31,0.06,"L8672c99"
108,"Hs LXXIII",72,36,"Hassium","Kr","Ar3d104s24p6","4p6","1S0","4p5 2P°3/2",5.7,0.07,"L8672c99"
108,"Hs LXXIV",73,35,"Hassium","Br","Ar3d104s24p5","4p5","2P°3/2","4p4 3P2",5.78,0.09,"L8672c99"
108,"Hs LXXV",74,34,"Hassium","Se","Ar3d104s24p4","4p4","3P2","4p3°3/2",5.88,0.09,"L8672c99"
108,"Hs LXXVI",75,33,"Hassium","As","Ar3d104s24p3","4p3","°3/2","4p2 3P0",5.98,0.1,"L8672c99"
108,"Hs LXXVII",76,32,"Hassium","Ge","Ar3d104s24p2","4p2","3P0","4p 2P°1/2",6.84,0.11,"L8672c99"
108,"Hs LXXVIII",77,31,"Hassium","Ga","Ar3d104s24p","4p","2P°1/2","4s2 1S0",6.95,0.12,"L8672c99"
108,"Hs LXXIX",78,30,"Hassium","Zn","Ar3d104s2","4s2","1S0","4s 2S1/2",7.23,0.12,"L8672c99"
108,"Hs LXXX",79,29,"Hassium","Cu","Ar3d104s","4s","2S1/2","3d10 1S0",7.34,0.14,"L8672c99"
108,"Hs LXXXI",80,28,"Hassium","Ni","Ar3d10","3d10","1S0","3d9 2D5/2",11.2,0.15,"L8672c99"
108,"Hs LXXXII",81,27,"Hassium","Co","Ar3d9","3d9","2D5/2","3d8 3F4",11.39,0.16,"L8672c99"
108,"Hs LXXXIII",82,26,"Hassium","Fe","Ar3d8","3d8","3F4","3d7 4F9/2",11.61,0.17,"L8672c99"
108,"Hs LXXXIV",83,25,"Hassium","Mn","Ar3d7","3d7","4F9/2","3d6 4",11.83,0.19,"L8672c99"
108,"Hs LXXXV",84,24,"Hassium","Cr","Ar3d6","3d6","4","3d5 5/2",12.04,0.2,"L8672c99"
108,"Hs LXXXVI",85,23,"Hassium","V","Ar3d5","3d5","5/2","3d4 5D0",12.25,0.22,"L8672c99"
108,"Hs LXXXVII",86,22,"Hassium","Ti","Ar3d4","3d4","5D0","3d3 4F3/2",12.91,0.24,"L8672c99"
108,"Hs LXXXVIII",87,21,"Hassium","Sc","Ar3d3","3d3","4F3/2","3d2 3F2",13.13,0.25,"L8672c99"
108,"Hs LXXXIX",88,20,"Hassium","Ca","Ar3d2","3d2","3F2","3d 2D3/2",13.4,0.3,"L8672c99"
108,"Hs XC",89,19,"Hassium","K","Ar3d","3d","2D3/2","3p6 1S0",13.6,0.3,"L8672c99"
108,"Hs XCI",90,18,"Hassium","Ar","Ne3s23p6","3p6","1S0","3p5 2P°3/2",14.2,0.3,"L8672c99"
108,"Hs XCII",91,17,"Hassium","Cl","Ne3s23p5","3p5","2P°3/2","3p4 3P2",14.4,0.3,"L8672c99"
108,"Hs XCIII",92,16,"Hassium","S","Ne3s23p4","3p4","3P2","3p3 2P°3/2",14.6,0.4,"L8672c99"
108,"Hs XCIV",93,15,"Hassium","P","Ne3s23p3","3p3","2P°3/2","3p2 3P0",14.8,0.4,"L8672c99"
108,"Hs XCV",94,14,"Hassium","Si","Ne3s23p2","3p2","3P0","3p 2P°1/2",17.5,0.4,"L8672c99"
108,"Hs XCVI",95,13,"Hassium","Al","Ne3s23p","3p","2P°1/2","3s2 1S0",17.7,0.4,"L8672c99"
108,"Hs XCVII",96,12,"Hassium","Mg","Ne3s2","3s2","1S0","3s 2S1/2",18.2,0.4,"L8672c99"
108,"Hs XCVIII",97,11,"Hassium","Na","Ne3s","3s","2S1/2","2p6 1S0",18.4,0.4,"L8672c99"
108,"Hs XCIX",98,10,"Hassium","Ne","1s22s22p6","2p6","1S0","2p5 2P°3/2",35.9,0.5,"L8672c99"
108,"Hs C",99,9,"Hassium","F","1s22s22p5","2p5","2P°3/2","2p4 3P2",36.4,0.5,"L8672c99"
108,"Hs CI",100,8,"Hassium","O","1s22s22p4","2p4","3P2","2p21/22p3/2 0,3/2°3/2",37,0.5,"L8672c99"
108,"Hs CII",101,7,"Hassium","N","1s22s22p3","2p21/22p3/2","0,3/2°3/2","2p2 3P0",37.5,0.5,"L8672c99"
108,"Hs CIII",102,6,"Hassium","C","1s22s22p2","2p2","3P0","2p 2P°1/2",47.3,0.5,"L8672c99"
108,"Hs CIV",103,5,"Hassium","B","1s22s22p","2p","2P°1/2","2s2 1S0",48.1,0.5,"L8672c99"
108,"Hs CV",104,4,"Hassium","Be","1s22s2","2s2","1S0","2s 2S1/2",49,0.6,"L8672c99"
108,"Hs CVI",105,3,"Hassium","Li","1s22s","2s","2S1/2","1s2 1S0",NA,NA,NA
108,"Hs CVII",106,2,"Hassium","He","1s2","1s2","1S0","1s 2S1/2",NA,NA,NA
108,"Hs CVIII",107,1,"Hassium","H","1s","1s","2S1/2",NA,194.917,0.012,"L7188"
109,"Mt V",4,105,"Meitnerium","Db","Rn5f146d5","6d5","5/2","6d4 0",0.05,0.0019,"L8672c99"
109,"Mt VI",5,104,"Meitnerium","Rf","Rn5f146d4","6d4","0","6d3 3/2",NA,NA,NA
109,"Mt VII",6,103,"Meitnerium","Lr","Rn5f146d3","6d27s","3/2","6d2 2",NA,NA,NA
109,"Mt VIII",7,102,"Meitnerium","No","Rn5f146d2","6d2","2","5f146d 2D3/2",0.094,0.0021,"L8672c99"
109,"Mt IX",8,101,"Meitnerium","Md","Rn5f146d","5f146d","2D3/2","5f14 1S0",0.109,0.0022,"L8672c99"
109,"Mt X",9,100,"Meitnerium","Fm","Rn5f14","5f14","1S0","5f13 2F°7/2",0.187,0.0022,"L8672c99"
109,"Mt XI",10,99,"Meitnerium","Es","Rn5f13","5f13","2F°7/2","5f12 3H6",0.202,0.0024,"L8672c99"
109,"Mt XII",11,98,"Meitnerium","Cf","Rn5f12","5f12","3H6","5f11 4I°15/2",0.2359,0.0025,"L8672c99"
109,"Mt XIII",12,97,"Meitnerium","Bk","Rn5f11","5f11","4I°15/2","5f10 5I8",0.257,0.003,"L8672c99"
109,"Mt XIV",13,96,"Meitnerium","Cm","Rn5f10","5f10","5I8","5f9 6H°15/2",0.289,0.003,"L8672c99"
109,"Mt XV",14,95,"Meitnerium","Am","Rn5f9","5f9","6H°15/2","5f8 7F6",0.318,0.003,"L8672c99"
109,"Mt XVI",15,94,"Meitnerium","Pu","Rn5f8","5f8","7F6","5f7 8S°7/2",0.346,0.003,"L8672c99"
109,"Mt XVII",16,93,"Meitnerium","Np","Rn5f7","5f7","8S°7/2","5f6 7F0",0.386,0.003,"L8672c99"
109,"Mt XVIII",17,92,"Meitnerium","U","Rn5f6","5f6","7F0","5f5 6H°5/2",0.406,0.003,"L8672c99"
109,"Mt XIX",18,91,"Meitnerium","Pa","Rn5f5","5f5","6H°5/2","5f4 5I4",0.445,0.003,"L8672c99"
109,"Mt XX",19,90,"Meitnerium","Th","Rn5f4","5f4","5I4",NA,NA,NA,NA
109,"Mt XXXII",31,78,"Meitnerium","Pt","Xe4f145d10","5d10","1S0","5d9 2D5/2",1.035,0.004,"L8672c99"
109,"Mt XXXIII",32,77,"Meitnerium","Ir","Xe4f145d9","5d9","2D5/2","5d8 3F4",1.072,0.004,"L8672c99"
109,"Mt XXXIV",33,76,"Meitnerium","Os","Xe4f145d8","5d8","3F4","5d7 4F9/2",1.112,0.005,"L8672c99"
109,"Mt XXXV",34,75,"Meitnerium","Re","Xe4f145d7","5d7","4F9/2","5d6 5D4",1.154,0.005,"L8672c99"
109,"Mt XXXVI",35,74,"Meitnerium","W","Xe4f145d6","5d6","5D4","5d5 6S5/2",1.195,0.005,"L8672c99"
109,"Mt XXXVII",36,73,"Meitnerium","Ta","Xe4f145d5","5d5","6S5/2","5d4 5D0",1.234,0.005,"L8672c98,c99"
109,"Mt XXXVIII",37,72,"Meitnerium","Hf","Xe4f145d4","5d4","5D0","5d3 4F3/2",1.311,0.004,"L8672c98,c99"
109,"Mt XXXIX",38,71,"Meitnerium","Lu","Xe4f145d3","5d3","4F3/2","5d2 3F2",1.352,0.004,"L8672c99"
109,"Mt XL",39,70,"Meitnerium","Yb","Xe4f145d2","5d2","3F2","5d 2D3/2",1.397,0.004,"L8672c99"
109,"Mt XLI",40,69,"Meitnerium","Tm","Xe4f145d","5d","2D3/2","4f14 1S0",1.439,0.004,"L8672c99"
109,"Mt XLII",41,68,"Meitnerium","Er","Xe4f14","4f14","1S0","4f145p5 2P°3/2",NA,NA,NA