"Z","Species","CS","Occ","Element","Iso_elec","Ground_Shells","Ground_Config","Ground_Level","Ionized_Level","IE","IE_uncertainty","References"
72,"Hf XLI",40,32,"Hafnium","Ge","Ar3d104s24p2","4p2","3P0","4p 2P°1/2",1.963,0.004,"L8672c99"
72,"Hf XLII",41,31,"Hafnium","Ga","Ar3d104s24p","4p","2P°1/2","4s2 1S0",2.022,0.004,"L8672c99"
72,"Hf XLIII",42,30,"Hafnium","Zn","Ar3d104s2","4s2","1S0","4s 2S1/2",2.159,0.004,"L8672c99"
72,"Hf XLIV",43,29,"Hafnium","Cu","Ar3d104s","4s","2S1/2","3d10 1S0",2.2189,0.0011,"L10278"
72,"Hf XLV",44,28,"Hafnium","Ni","Ar3d10","3d10","1S0","3d9 2D5/2",3.741,0.004,"L8672c99"
72,"Hf XLVI",45,27,"Hafnium","Co","Ar3d9","3d9","2D5/2","3d8 3F4",3.858,0.004,"L8672c99"
72,"Hf XLVII",46,26,"Hafnium","Fe","Ar3d8","3d8","3F4","3d7 4F9/2",3.984,0.004,"L8672c99"
72,"Hf XLVIII",47,25,"Hafnium","Mn","Ar3d7","3d7","4F9/2","3d6 4",4.118,0.004,"L8672c99"
72,"Hf XLIX",48,24,"Hafnium","Cr","Ar3d6","3d6","4","3d5 5/2",4.246,0.004,"L8672c99"
72,"Hf L",49,23,"Hafnium","V","Ar3d5","3d5","5/2","3d4 5D0",4.372,0.004,"L8672c99"
72,"Hf LI",50,22,"Hafnium","Ti","Ar3d4","3d4","5D0","3d3 4F3/2",4.573,0.004,"L8672c99"
72,"Hf LII",51,21,"Hafnium","Sc","Ar3d3","3d3","4F3/2","3d2 3F2",4.703,0.004,"L8672c99"
72,"Hf LIII",52,20,"Hafnium","Ca","Ar3d2","3d2","3F2","3d 2D3/2",4.846,0.004,"L8672c99"
72,"Hf LIV",53,19,"Hafnium","K","Ar3d","3d","2D3/2","3p6 1S0",4.98,0.005,"L8672c99"
72,"Hf LV",54,18,"Hafnium","Ar","Ne3s23p6","3p6","1S0","3p5 2P°3/2",5.35,0.005,"L8672c99"
72,"Hf LVI",55,17,"Hafnium","Cl","Ne3s23p5","3p5","2P°3/2","3p4 3P2",5.468,0.005,"L8672c99"
72,"Hf LVII",56,16,"Hafnium","S","Ne3s23p4","3p4","3P2","3p3 2P°3/2",5.595,0.005,"L8672c99"
72,"Hf LVIII",57,15,"Hafnium","P","Ne3s23p3","3p3","2P°3/2","3p2 3P0",5.713,0.006,"L8672c99"
72,"Hf LIX",58,14,"Hafnium","Si","Ne3s23p2","3p2","3P0","3p 2P°1/2",6.149,0.006,"L8672c99"
72,"Hf LX",59,13,"Hafnium","Al","Ne3s23p","3p","2P°1/2","3s2 1S0",6.284,0.007,"L8672c99"
72,"Hf LXI",60,12,"Hafnium","Mg","Ne3s2","3s2","1S0","3s 2S1/2",6.545,0.01,"L8672c99"
72,"Hf LXII",61,11,"Hafnium","Na","Ne3s","3s","2S1/2","2p6 1S0",6.674,0.012,"L8672c99"
72,"Hf LXIII",62,10,"Hafnium","Ne","1s22s22p6","2p6","1S0","2p5 2P°3/2",14.678,0.015,"L8672c99"
72,"Hf LXIV",63,9,"Hafnium","F","1s22s22p5","2p5","2P°3/2","2p4 3P2",14.999,0.019,"L8672c99"
72,"Hf LXV",64,8,"Hafnium","O","1s22s22p4","2p4","3P2","2p21/22p3/2 0,3/2°3/2",15.351,0.024,"L8672c99"
72,"Hf LXVI",65,7,"Hafnium","N","1s22s22p3","2p21/22p3/2","0,3/2°3/2","2p2 3P0",15.68,0.03,"L8672c99"
72,"Hf LXVII",66,6,"Hafnium","C","1s22s22p2","2p2","3P0","2p 2P°1/2",17.28,0.04,"L8672c99"
72,"Hf LXVIII",67,5,"Hafnium","B","1s22s22p","2p","2P°1/2","2s2 1S0",17.68,0.04,"L8672c99"
72,"Hf LXIX",68,4,"Hafnium","Be","1s22s2","2s2","1S0","2s 2S1/2",18.18,0.05,"L8672c99"
72,"Hf LXX",69,3,"Hafnium","Li","1s22s","2s","2S1/2","1s2 1S0",18.50232,0.00017,"L16264c99"
72,"Hf LXXI",70,2,"Hafnium","He","1s2","1s2","1S0","1s 2S1/2",74.56593,9e-05,"L12128"
72,"Hf LXXII",71,1,"Hafnium","H","1s","1s","2S1/2",NA,76.0778,4e-04,"L7188"
73,"Ta I",0,73,"Tantalum","Ta","Xe4f145d36s2","5d36s2","4F3/2","5d36s 5F1",0.007549571,2.5e-08,"L13153"
73,"Ta II",1,72,"Tantalum","Hf","Xe4f145d36s","5d34F6s","5F1","5d3 4F3/2",0.0162,5e-04,"L16139"
73,"Ta III",2,71,"Tantalum","Lu","Xe4f145d3","5d3","4F3/2","5d2 3F2",0.0231,0.0016,"L8672c99"
73,"Ta IV",3,70,"Tantalum","Yb","Xe4f145d2","5d2","3F2","5d 2D3/2",0.035,0.0017,"L8672c99"
73,"Ta V",4,69,"Tantalum","Tm","Xe4f145d","5d","2D3/2","4f14 1S0",0.048272,2.5e-05,"L3654"
73,"Ta VI",5,68,"Tantalum","Er","Xe4f14","4f14","1S0","4f135p6 2F°7/2",0.09401,5e-05,"L3654"
73,"Ta VII",6,67,"Tantalum","Ho","Xe4f13","4f135p6","2F°7/2","4f135p5",0.119,0.006,"L582"
73,"Ta VIII",7,66,"Tantalum","Dy","Cd4f135p5","4f135p5",NA,"4f135p4°",0.139,0.007,"L582"
73,"Ta IX",8,65,"Tantalum","Tb","Cd4f135p4","4f135p4","°","4f135p3",0.159,0.008,"L582"
73,"Ta X",9,64,"Tantalum","Gd","Cd4f135p3","4f135p3",NA,"4f135p2 4F°7/2",0.18,0.009,"L582"
73,"Ta XI",10,63,"Tantalum","Eu","Cd4f135p2","4f135p2","4F°7/2","4f135p",0.213,0.011,"L582"
73,"Ta XII",11,62,"Tantalum","Sm","Cd4f135p","4f135p",NA,"4f135s2 2F°7/2",0.235,0.012,"L582"
73,"Ta XIII",12,61,"Tantalum","Pm","Cd4f13","4f135s2","2F°7/2","4f125s2 3H6",0.262,0.014,"L582"
73,"Ta XIV",13,60,"Tantalum","Nd","Cd4f12","4f125s2","3H6","4f115s2 4I°15/2",0.304,0.015,"L582"
73,"Ta XV",14,59,"Tantalum","Pr","Cd4f11","4f115s2","4I°15/2","4f115s 5I°4",0.338,0.017,"L582"
73,"Ta XVI",15,58,"Tantalum","Ce","Kr4d104f115s","4f115s","5I°8","4f11°",0.363,0.019,"L582"
73,"Ta XVII",16,57,"Tantalum","La","Kr4d104f11","4f11","°","4f10",0.396,0.02,"L582"
73,"Ta XVIII",17,56,"Tantalum","Ba","Kr4d104f10","4f10",NA,"4f9 6H°15/2",0.439,0.022,"L582"
73,"Ta XIX",18,55,"Tantalum","Cs","Kr4d104f9","4f9","6H°15/2","4f8 7F6",0.482,0.024,"L582"
73,"Ta XX",19,54,"Tantalum","Xe","Kr4d104f8","4f8","7F6","4f7 8S°7/2",0.53,0.03,"L582"
73,"Ta XXI",20,53,"Tantalum","I","Kr4d104f7","4f7","8S°7/2","4f6 7F0",0.57,0.03,"L582"
73,"Ta XXII",21,52,"Tantalum","Te","Kr4d104f6","4f6","7F0","4f5 6H°5/2",0.61,0.03,"L582"
73,"Ta XXIII",22,51,"Tantalum","Sb","Kr4d104f5","4f5","6H°5/2","4f4 5I4",0.66,0.03,"L582"
73,"Ta XXIV",23,50,"Tantalum","Sn","Kr4d104f4","4f4","5I4","4f3 4I°9/2",0.7,0.03,"L582"
73,"Ta XXV",24,49,"Tantalum","In","Kr4d104f3","4f3","4I°9/2","4f2 3H4",0.75,0.04,"L582"
73,"Ta XXVI",25,48,"Tantalum","Cd","Kr4d104f2","4f2","3H4","4f 2F°5/2",0.79,0.04,"L582"
73,"Ta XXVII",26,47,"Tantalum","Ag","Kr4d104f","4f","2F°5/2","4d10 1S0",0.832,0.01,"L582c99"
73,"Ta XXVIII",27,46,"Tantalum","Pd","Kr4d10","4d10","1S0","4d9 2D5/2",1.064,0.004,"L8672c99"
73,"Ta XXIX",28,45,"Tantalum","Rh","Kr4d9","4d9","2D5/2","4d8 3F4",1.11,0.004,"L8672c99"
73,"Ta XXX",29,44,"Tantalum","Ru","Kr4d8","4d8","3F4","4d7 4F9/2",1.16,0.004,"L8672c99"
73,"Ta XXXI",30,43,"Tantalum","Tc","Kr4d7","4d7","4F9/2","4d6 5D4",1.211,0.004,"L8672c99"
73,"Ta XXXII",31,42,"Tantalum","Mo","Kr4d6","4d6","5D4","4d5 6S5/2",1.262,0.004,"L8672c99"
73,"Ta XXXIII",32,41,"Tantalum","Nb","Kr4d5","4d5","6S5/2","4d4 5D0",1.313,0.004,"L8672c99"
73,"Ta XXXIV",33,40,"Tantalum","Zr","Kr4d4","4d4","5D0","4d3 4F3/2",1.382,0.005,"L8672c99"
73,"Ta XXXV",34,39,"Tantalum","Y","Kr4d3","4d3","4F3/2","4d2 3F2",1.434,0.005,"L8672c99"
73,"Ta XXXVI",35,38,"Tantalum","Sr","Kr4d2","4d2","3F2","4d 2D3/2",1.49,0.005,"L8672c99"
73,"Ta XXXVII",36,37,"Tantalum","Rb","Kr4d","4d","2D3/2","4p6 1S0",1.542,0.005,"L8672c99"
73,"Ta XXXVIII",37,36,"Tantalum","Kr","Ar3d104s24p6","4p6","1S0","4p5 2P°3/2",1.748,0.004,"L8672c99"
73,"Ta XXXIX",38,35,"Tantalum","Br","Ar3d104s24p5","4p5","2P°3/2","4p4 3P2",1.799,0.004,"L8672c99"
73,"Ta XL",39,34,"Tantalum","Se","Ar3d104s24p4","4p4","3P2","4p3 4S°3/2",1.857,0.004,"L8672c99"
73,"Ta XLI",40,33,"Tantalum","As","Ar3d104s24p3","4p3","4S°3/2","4p2 3P0",1.91,0.004,"L8672c99"
73,"Ta XLII",41,32,"Tantalum","Ge","Ar3d104s24p2","4p2","3P0","4p 2P°1/2",2.053,0.004,"L8672c99"
73,"Ta XLIII",42,31,"Tantalum","Ga","Ar3d104s24p","4p","2P°1/2","4s2 1S0",2.113,0.004,"L8672c99"
73,"Ta XLIV",43,30,"Tantalum","Zn","Ar3d104s2","4s2","1S0","4s 2S1/2",2.254,0.004,"L8672c99"
73,"Ta XLV",44,29,"Tantalum","Cu","Ar3d104s","4s","2S1/2","3d10 1S0",2.3147,0.0019,"L5473"
73,"Ta XLVI",45,28,"Tantalum","Ni","Ar3d10","3d10","1S0","3d9 2D5/2",3.8987,0.0025,"L10191"
73,"Ta XLVII",46,27,"Tantalum","Co","Ar3d9","3d9","2D5/2","3d8 3F4",4.014,0.004,"L8672c99"
73,"Ta XLVIII",47,26,"Tantalum","Fe","Ar3d8","3d8","3F4","3d7 4F9/2",4.143,0.004,"L8672c99"
73,"Ta XLIX",48,25,"Tantalum","Mn","Ar3d7","3d7","4F9/2","3d6 4",4.278,0.004,"L8672c99"
73,"Ta L",49,24,"Tantalum","Cr","Ar3d6","3d6","4","3d5 5/2",4.41,0.004,"L8672c99"
73,"Ta LI",50,23,"Tantalum","V","Ar3d5","3d5","5/2","3d4 5D0",4.537,0.004,"L8672c99"
73,"Ta LII",51,22,"Tantalum","Ti","Ar3d4","3d4","5D0","3d3 4F3/2",4.745,0.004,"L8672c99"
73,"Ta LIII",52,21,"Tantalum","Sc","Ar3d3","3d3","4F3/2","3d2 3F2",4.877,0.004,"L8672c99"
73,"Ta LIV",53,20,"Tantalum","Ca","Ar3d2","3d2","3F2","3d 2D3/2",5.024,0.005,"L8672c99"
73,"Ta LV",54,19,"Tantalum","K","Ar3d","3d","2D3/2","3p6 1S0",5.159,0.005,"L8672c99"
73,"Ta LVI",55,18,"Tantalum","Ar","Ne3s23p6","3p6","1S0","3p5 2P°3/2",5.537,0.005,"L8672c99"
73,"Ta LVII",56,17,"Tantalum","Cl","Ne3s23p5","3p5","2P°3/2","3p4 3P2",5.655,0.005,"L8672c99"
73,"Ta LVIII",57,16,"Tantalum","S","Ne3s23p4","3p4","3P2","3p3 2P°3/2",5.785,0.006,"L8672c99"
73,"Ta LIX",58,15,"Tantalum","P","Ne3s23p3","3p3","2P°3/2","3p2 3P0",5.907,0.006,"L8672c99"
73,"Ta LX",59,14,"Tantalum","Si","Ne3s23p2","3p2","3P0","3p 2P°1/2",6.364,0.007,"L8672c99"
73,"Ta LXI",60,13,"Tantalum","Al","Ne3s23p","3p","2P°1/2","3s2 1S0",6.502,0.01,"L8672c99"
73,"Ta LXII",61,12,"Tantalum","Mg","Ne3s2","3s2","1S0","3s 2S1/2",6.769,0.012,"L8672c99"
73,"Ta LXIII",62,11,"Tantalum","Na","Ne3s","3s","2S1/2","2p6 1S0",6.9,0.015,"L8672c99"
73,"Ta LXIV",63,10,"Tantalum","Ne","1s22s22p6","2p6","1S0","2p5 2P°3/2",15.137,0.019,"L8672c99"
73,"Ta LXV",64,9,"Tantalum","F","1s22s22p5","2p5","2P°3/2","2p4 3P2",15.461,0.024,"L8672c99"
73,"Ta LXVI",65,8,"Tantalum","O","1s22s22p4","2p4","3P2","2p21/22p3/2 0,3/2°3/2",15.82,0.03,"L8672c99"
73,"Ta LXVII",66,7,"Tantalum","N","1s22s22p3","2p21/22p3/2","0,3/2°3/2","2p2 3P0",16.15,0.04,"L8672c99"
73,"Ta LXVIII",67,6,"Tantalum","C","1s22s22p2","2p2","3P0","2p 2P°1/2",17.84,0.04,"L8672c99"
73,"Ta LXIX",68,5,"Tantalum","B","1s22s22p","2p","2P°1/2","2s2 1S0",18.25,0.05,"L8672c99"
73,"Ta LXX",69,4,"Tantalum","Be","1s22s2","2s2","1S0","2s 2S1/2",18.76,0.05,"L8672c99"
73,"Ta LXXI",70,3,"Tantalum","Li","1s22s","2s","2S1/2","1s2 1S0",19.08851,0.00019,"L16264c99"
73,"Ta LXXII",71,2,"Tantalum","He","1s2","1s2","1S0","1s 2S1/2",76.85203,1e-04,"L12128"
73,"Ta LXXIII",72,1,"Tantalum","H","1s","1s","2S1/2",NA,78.3947,5e-04,"L7188"
74,"W I",0,74,"Tungsten","W","Xe4f145d46s2","5d46s2","5D0","5d46s 6D1/2",0.00786403,1e-07,"L11604"
74,"W II",1,73,"Tungsten","Ta","Xe4f145d46s","5d45D6s","6D1/2","5d4 5D0",0.01637,0.00015,"L12177"
74,"W III",2,72,"Tungsten","Hf","Xe4f145d4","5d4","5D0","5d3 4F3/2",0.026,4e-04,"L9087"
74,"W IV",3,71,"Tungsten","Lu","Xe4f145d3","5d3","4F3/2","5d2 3F2",0.0382,4e-04,"L9087"
74,"W V",4,70,"Tungsten","Yb","Xe4f145d2","5d2","3F2","5d 2D3/2",0.0516,3e-04,"L9087"
74,"W VI",5,69,"Tungsten","Tm","Xe4f145d","5d","2D3/2","4f14 1S0",0.06477,4e-05,"L4597"
74,"W VII",6,68,"Tungsten","Er","Xe4f14","4f145p6","1S0","4f135p6 2F°7/2",0.12201,6e-05,"L3694"
74,"W VIII",7,67,"Tungsten","Ho","Xe4f13","4f135p6","2F°7/2","4f145p4 3P2",0.1412,0.0012,"L9087"
74,"W IX",8,66,"Tungsten","Dy","Cd4f145p4","4f145p4","3P2","4f145p3 2P°3/2",0.1602,0.0012,"L9087"
74,"W X",9,65,"Tungsten","Tb","Cd4f145p3","4f145p3","2P°3/2","4f145p2 3P0",0.179,0.0012,"L9087"
74,"W XI",10,64,"Tungsten","Gd","Cd4f145p2","4f145p2","3P0","4f135p2 4F°7/2",0.2089,0.0012,"L9087"
74,"W XII",11,63,"Tungsten","Eu","Cd4f135p2","4f135p2","4F°7/2","4f14 1S0",0.2316,0.0012,"L9087"
74,"W XIII",12,62,"Tungsten","Sm","Cd4f14","4f145s2","1S0","4f135s2 2F°7/2",0.2583,0.0012,"L9087"
74,"W XIV",13,61,"Tungsten","Pm","Cd4f13","4f135s2","2F°7/2","4f125s2 3H6",0.2907,0.0012,"L9087"
74,"W XV",14,60,"Tungsten","Nd","Cd4f12","4f125s2","3H6","4f115s2 4I°15/2",0.3253,0.0015,"L9087"
74,"W XVI",15,59,"Tungsten","Pr","Cd4f11","4f115s2","4I°15/2","4f115s 5I°8",0.3619,0.0015,"L9087"
74,"W XVII",16,58,"Tungsten","Ce","Kr4d104f115s","4f114I°5s","5I°8","4f11 4I°15/2",0.3879,0.0012,"L9087"
74,"W XVIII",17,57,"Tungsten","La","Kr4d104f11","4d104f11","4I°15/2","4f10 5I8",0.4207,0.0014,"L9087"
74,"W XIX",18,56,"Tungsten","Ba","Kr4d104f10","4d104f10","5I8","4f9 6H°15/2",0.4621,0.0014,"L9087"
74,"W XX",19,55,"Tungsten","Cs","Kr4d104f9","4d104f9","6H°15/2","4f8 7F6",0.5026,0.0014,"L9087"
74,"W XXI",20,54,"Tungsten","Xe","Kr4d104f8","4d104f8","7F6","4f7 8S°7/2",0.5434,0.0014,"L9087"
74,"W XXII",21,53,"Tungsten","I","Kr4d104f7","4d104f7","8S°7/2","4f6 7F0",0.5945,0.0015,"L9087"
74,"W XXIII",22,52,"Tungsten","Te","Kr4d104f6","4d104f6","7F0","4f5 6H°5/2",0.6406,0.0015,"L9087"
74,"W XXIV",23,51,"Tungsten","Sb","Kr4d104f5","4d104f5","6H°5/2","4f4 5I4",0.6856,0.0016,"L9087"
74,"W XXV",24,50,"Tungsten","Sn","Kr4d104f4","4d104f4","5I4","4f3 4I°9/2",0.7341,0.0017,"L9087"
74,"W XXVI",25,49,"Tungsten","In","Kr4d104f3","4d104f3","4I°9/2","4f2 3H4",0.7844,0.0019,"L9087"
74,"W XXVII",26,48,"Tungsten","Cd","Kr4d104f2","4d104f2","3H4","4f 2F°5/2",0.8334,0.0019,"L9087"
74,"W XXVIII",27,47,"Tungsten","Ag","Kr4d104f","4d104f","2F°5/2","4d10 1S0",0.8814,0.0016,"L9087"
74,"W XXIX",28,46,"Tungsten","Pd","Kr4d10","4d10","1S0","4d9 2D5/2",1.1322,0.0014,"L9087"
74,"W XXX",29,45,"Tungsten","Rh","Kr4d9","4d9","2D5/2","4d8 3F4",1.18,0.0014,"L9087"
74,"W XXXI",30,44,"Tungsten","Ru","Kr4d8","4d8","3F4","4d7 4F9/2",1.2304,0.0014,"L9087"
74,"W XXXII",31,43,"Tungsten","Tc","Kr4d7","4d7","4F9/2","4d6 5D4",1.2834,0.0014,"L9087"
74,"W XXXIII",32,42,"Tungsten","Mo","Kr4d6","4d6","5D4","4d5 4P5/2",1.3351,0.0014,"L9087"
74,"W XXXIV",33,41,"Tungsten","Nb","Kr4d5","4d5","4P5/2","4d4 3P10",1.3868,0.0014,"L9087"
74,"W XXXV",34,40,"Tungsten","Zr","Kr4d4","4d4","3P10","4d3 4F3/2",1.4599,0.0015,"L9087"
74,"W XXXVI",35,39,"Tungsten","Y","Kr4d3","4d3","4F3/2","4d2 3F2",1.5124,0.0015,"L9087"
74,"W XXXVII",36,38,"Tungsten","Sr","Kr4d2","4d2","3F2","4d 2D3/2",1.5691,0.0015,"L9087"
74,"W XXXVIII",37,37,"Tungsten","Rb","Kr4d","4p64d","2D3/2","4p6 1S0",1.6217,0.0015,"L9087"
74,"W XXXIX",38,36,"Tungsten","Kr","Ar3d104s24p6","4p6","1S0","4p5 2P°3/2",1.8298,0.0019,"L9087"
74,"W XL",39,35,"Tungsten","Br","Ar3d104s24p5","3d104s24p5","2P°3/2","4p4 3P2",1.8829,0.002,"L9087"
74,"W XLI",40,34,"Tungsten","Se","Ar3d104s24p4","3d104s24p4","3P2","4p3 2D°3/2",1.9406,0.002,"L9087"
74,"W XLII",41,33,"Tungsten","As","Ar3d104s24p3","3d104s24p3","2D°3/2","4p2 3P0",1.9948,0.002,"L9087"
74,"W XLIII",42,32,"Tungsten","Ge","Ar3d104s24p2","3d104s24p2","3P0","4p 2P°1/2",2.1491,0.0021,"L9087"
74,"W XLIV",43,31,"Tungsten","Ga","Ar3d104s24p","3d104s24p","2P°1/2","4s2 1S0",2.21,0.0015,"L9087"
74,"W XLV",44,30,"Tungsten","Zn","Ar3d104s2","3d104s2","1S0","4s 2S1/2",2.3545,0.0014,"L9087"
74,"W XLVI",45,29,"Tungsten","Cu","Ar3d104s","3d104s","2S1/2","3d10 1S0",2.4141,4e-04,"L10257"
74,"W XLVII",46,28,"Tungsten","Ni","Ar3d10","3p63d10","1S0","3d9 2D5/2",4.057,0.003,"L10191"
74,"W XLVIII",47,27,"Tungsten","Co","Ar3d9","3p63d9","2D5/2","3d43/23d45/2 0,44",4.18,0.004,"L9087"
74,"W XLIX",48,26,"Tungsten","Fe","Ar3d8","3d43/23d45/2","0,44","3d43/23d35/2 0,9/29/2",4.309,0.004,"L9087"
74,"W L",49,25,"Tungsten","Mn","Ar3d7","3d43/23d35/2","0,9/29/2","3d43/23d25/2 0,44",4.446,0.004,"L9087"
74,"W LI",50,24,"Tungsten","Cr","Ar3d6","3d43/23d25/2","0,44","3d43/23d5/2 0,5/25/2",4.578,0.004,"L9087"
74,"W LII",51,23,"Tungsten","V","Ar3d5","3d43/23d5/2","0,5/25/2","3d43/2 0,00",4.709,0.004,"L9087"
74,"W LIII",52,22,"Tungsten","Ti","Ar3d4","3d43/2","0,00","3d3 3/2,03/2",4.927,0.004,"L9087"
74,"W LIV",53,21,"Tungsten","Sc","Ar3d3","3d33/2","3/2,03/2","3d2 3/2,3/22",5.063,0.004,"L14671"
74,"W LV",54,20,"Tungsten","Ca","Ar3d2","3d2","3/2,3/22","3d 2D3/2",5.209,0.004,"L9087"
74,"W LVI",55,19,"Tungsten","K","Ar3d","3p63d","2D3/2","3p6 1S0",5.348,0.004,"L9087"
74,"W LVII",56,18,"Tungsten","Ar","Ne3s23p6","3p6","1S0","3p5 2P°3/2",5.719,0.005,"L9087"
74,"W LVIII",57,17,"Tungsten","Cl","Ne3s23p5","3s23p5","2P°3/2","3p4 3P2",5.84,0.005,"L9087"
74,"W LIX",58,16,"Tungsten","S","Ne3s23p4","3s23p4","3P2","3p3 2P°3/2",5.97,0.005,"L9087"
74,"W LX",59,15,"Tungsten","P","Ne3s23p3","3s23p3","2P°3/2","3p2 3P0",6.093,0.005,"L9087"
74,"W LXI",60,14,"Tungsten","Si","Ne3s23p2","3s23p2","3P0","3p 2P°1/2",6.596,0.007,"L14671"
74,"W LXII",61,13,"Tungsten","Al","Ne3s23p","3s23p","2P°1/2","3s2 1S0",6.735,0.007,"L9087"
74,"W LXIII",62,12,"Tungsten","Mg","Ne3s2","3s2","1S0","3s 2S1/2",7,0.007,"L9087"
74,"W LXIV",63,11,"Tungsten","Na","Ne3s","3s","2S1/2","2p6 1S0",7.13,0.007,"L9087"
74,"W LXV",64,10,"Tungsten","Ne","1s22s22p6","2s22p6","1S0","2p5 2P°3/2",15.566,0.011,"L9087"
74,"W LXVI",65,9,"Tungsten","F","1s22s22p5","2s22p5","2P°3/2","2p4 3P2",15.896,0.011,"L9087"
74,"W LXVII",66,8,"Tungsten","O","1s22s22p4","2s22p4","3P2","2p3 2P°3/2",16.252,0.011,"L14671"
74,"W LXVIII",67,7,"Tungsten","N","1s22s22p3","2s22p3","2P°3/2","2p2 3P0",16.588,0.011,"L9087"
74,"W LXIX",68,6,"Tungsten","C","1s22s22p2","2s22p2","3P0","2p 2P°1/2",18.476,0.004,"L9087"
74,"W LXX",69,5,"Tungsten","B","1s22s22p","2s22p","2P°1/2","2s2 1S0",18.872,0.003,"L9087"
74,"W LXXI",70,4,"Tungsten","Be","1s22s2","1s22s2","1S0","2s 2S1/2",19.362,0.003,"L9087"
74,"W LXXII",71,3,"Tungsten","Li","1s22s","1s22s","2S1/2","1s2 1S0",19.68674,2e-04,"L16264c99"
74,"W LXXIII",72,2,"Tungsten","He","1s2","1s2","1S0","1s 2S1/2",79.18194,1e-04,"L12128"
74,"W LXXIV",73,1,"Tungsten","H","1s","1s","2S1/2",NA,80.7556,6e-04,"L7188"
75,"Re I",0,75,"Rhenium","Re","Xe4f145d56s2","5d56s2","6S5/2","5d56s 7S3",0.00783352,1.1e-07,"L11604"
75,"Re II",1,74,"Rhenium","W","Xe4f145d56s","5d56S6s","7S3","5d5 6S5/2",0.0166,5e-04,"L16139"
75,"Re III",2,73,"Rhenium","Ta","Xe4f145d5","5d5","6S5/2","5d4 5D0",0.027,0.0016,"L8672c99"
75,"Re IV",3,72,"Rhenium","Hf","Xe4f145d4","5d4","5D 0","5d3 4F3/2",0.0391,0.0017,"L8672c99"
75,"Re V",4,71,"Rhenium","Lu","Xe4f145d3","5d3","4F3/2","5d2 3F2",0.0519,0.0019,"L8672c99"
75,"Re VI",5,70,"Rhenium","Yb","Xe4f145d2","5d2","3F2","5d 2D3/2",0.067,0.002,"L8672c99"
75,"Re VII",6,69,"Rhenium","Tm","Xe4f145d","5d","2D3/2","4f14 1S0",0.08271,5e-05,"L4597"
75,"Re VIII",7,68,"Rhenium","Er","Xe4f14","4f14","1S0","4f145p5 2P°3/2",0.1444,4e-04,"L3654"
75,"Re IX",8,67,"Rhenium","Ho","Cd4f145p5","4f145p5","2P°3/2","4f145p4 3P2",0.165,0.008,"L582"
75,"Re X",9,66,"Rhenium","Dy","Cd4f145p4","4f145p4","3P2","4f145p3 2P°3/2",0.187,0.009,"L582"
75,"Re XI",10,65,"Rhenium","Tb","Cd4f145p3","4f145p3","2P°3/2","4f145p2 3P0",0.208,0.01,"L582"
75,"Re XII",11,64,"Rhenium","Gd","Cd4f145p2","4f145p2","3P0","4f135p2 4F°7/2",0.236,0.012,"L582"
75,"Re XIII",12,63,"Rhenium","Eu","Cd4f135p2","4f135p2","4F°7/2","4f135p",0.268,0.014,"L582"
75,"Re XIV",13,62,"Rhenium","Sm","Cd4f14","4f135p",NA,"4f135s2 2F°7/2",0.291,0.015,"L582"
75,"Re XV",14,61,"Rhenium","Pm","Cd4f13","4f135s2","2F°7/2","4f125s2 3H6",0.33,0.016,"L582"
75,"Re XVI",15,60,"Rhenium","Nd","Cd4f12","4f125s2","3H6","4f115s2 4I°15/2",0.377,0.019,"L582"
75,"Re XVII",16,59,"Rhenium","Pr","Cd4f11","4f115s2","4I°15/2","4f12",0.403,0.02,"L582"
75,"Re XVIII",17,58,"Rhenium","Ce","Kr4d104f12","4f12",NA,"4f11 4I°15/2",0.429,0.021,"L582"
75,"Re XIX",18,57,"Rhenium","La","Kr4d104f11","4f11","4I°15/2","4f10 5I8",0.476,0.024,"L582"
75,"Re XX",19,56,"Rhenium","Ba","Kr4d104f10","4f10","5I8","4f9 6H°15/2",0.52,0.03,"L582"
75,"Re XXI",20,55,"Rhenium","Cs","Kr4d104f9","4f9","6H°15/2","4f8 7F6",0.57,0.03,"L582"
75,"Re XXII",21,54,"Rhenium","Xe","Kr4d104f8","4f8","7F6","4f7 8S°7/2",0.62,0.03,"L582"
75,"Re XXIII",22,53,"Rhenium","I","Kr4d104f7","4f7","8S°7/2","4f6 7F0",0.67,0.03,"L582"
75,"Re XXIV",23,52,"Rhenium","Te","Kr4d104f6","4f6","7F0","4f5 6H°5/2",0.72,0.04,"L582"
75,"Re XXV",24,51,"Rhenium","Sb","Kr4d104f5","4f5","6H°5/2","4f4 5I4",0.76,0.04,"L582"
75,"Re XXVI",25,50,"Rhenium","Sn","Kr4d104f4","4f4","5I4","4f3 4I°9/2",0.81,0.04,"L582"
75,"Re XXVII",26,49,"Rhenium","In","Kr4d104f3","4f3","4I°9/2","4f2 3H4",0.86,0.04,"L582"
75,"Re XXVIII",27,48,"Rhenium","Cd","Kr4d104f2","4f2","3H4","4f 2F°5/2",0.91,0.05,"L582"
75,"Re XXIX",28,47,"Rhenium","Ag","Kr4d104f","4f","2F°5/2","4d10 1S0",0.953,0.019,"L582c99"
75,"Re XXX",29,46,"Rhenium","Pd","Kr4d10","4d10","1S0","4d9 2D5/2",1.194,0.004,"L8672c99"
75,"Re XXXI",30,45,"Rhenium","Rh","Kr4d9","4d9","2D5/2","4d8 3F4",1.242,0.004,"L8672c99"
75,"Re XXXII",31,44,"Rhenium","Ru","Kr4d8","4d8","3F4","4d7 4F9/2",1.294,0.004,"L8672c99"
75,"Re XXXIII",32,43,"Rhenium","Tc","Kr4d7","4d7","4F9/2","4d6 5D4",1.349,0.004,"L8672c99"
75,"Re XXXIV",33,42,"Rhenium","Mo","Kr4d6","4d6","5D4","4d5 5/2",1.402,0.005,"L8672c99"
75,"Re XXXV",34,41,"Rhenium","Nb","Kr4d5","4d5","5/2","4d4 5D0",1.454,0.005,"L8672c99"
75,"Re XXXVI",35,40,"Rhenium","Zr","Kr4d4","4d4","5D0","4d3 4F3/2",1.53,0.005,"L8672c99"