"Z","Species","CS","Occ","Element","Iso_elec","Ground_Shells","Ground_Config","Ground_Level","Ionized_Level","IE","IE_uncertainty","References"
42,"Mo V",4,38,"Molybdenum","Sr","Kr4d2","4p64d2","3F2","4d 2D3/2",0.054417,1.9e-05,"L19131"
42,"Mo VI",5,37,"Molybdenum","Rb","Kr4d","4p64d","2D3/2","4p6 1S0",0.06882704,2.1e-07,"L15083"
42,"Mo VII",6,36,"Molybdenum","Kr","Ar3d104s24p6","4s24p6","1S0","4p5 2P°3/2",0.125638,2.5e-05,"L10359"
42,"Mo VIII",7,35,"Molybdenum","Br","Ar3d104s24p5","4s24p5","2P°3/2","4p4 3P2",0.1436,0.001,"L10502,L3646"
42,"Mo IX",8,34,"Molybdenum","Se","Ar3d104s24p4","4s24p4","3P2","4p3 4S°3/2",0.16412,9e-05,"L10502,L4577"
42,"Mo X",9,33,"Molybdenum","As","Ar3d104s24p3","4s24p3","4S°3/2","4p2 3P0",0.1863,0.0012,"L10502,L5287"
42,"Mo XI",10,32,"Molybdenum","Ge","Ar3d104s24p2","4s24p2","3P0","4p 2P°1/2",0.2093,0.0012,"L10502"
42,"Mo XII",11,31,"Molybdenum","Ga","Ar3d104s24p","4s24p","2P°1/2","4s2 1S0",0.23028,6e-05,"L10502,L6833"
42,"Mo XIII",12,30,"Molybdenum","Zn","Ar3d104s2","3d104s2","1S0","4s 2S1/2",0.2791,5e-04,"L10502,L6976"
42,"Mo XIV",13,29,"Molybdenum","Cu","Ar3d104s","3d104s","2S1/2","3d10 1S0",0.3026,4e-05,"L4593"
42,"Mo XV",14,28,"Molybdenum","Ni","Ar3d10","3d10","1S0","3d9 2D5/2",0.544,5e-04,"L10502"
42,"Mo XVI",15,27,"Molybdenum","Co","Ar3d9","3p63d9","2D5/2","3d8 3F4",0.591,0.003,"L8672c99"
42,"Mo XVII",16,26,"Molybdenum","Fe","Ar3d8","3p63d8","3F4","3d7 4F9/2",0.646,0.003,"L8672c99"
42,"Mo XVIII",17,25,"Molybdenum","Mn","Ar3d7","3p63d7","4F9/2","3d6 5D4",0.702,0.003,"L8672c99"
42,"Mo XIX",18,24,"Molybdenum","Cr","Ar3d6","3d6","5D4","3d5 6S5/2",0.758,0.003,"L8672c99"
42,"Mo XX",19,23,"Molybdenum","V","Ar3d5","3d5","6S5/2","3d4 5D0",0.829,0.004,"L8672c99"
42,"Mo XXI",20,22,"Molybdenum","Ti","Ar3d4","3d4","5D0","3d3 4F3/2",0.89,0.004,"L8672c99"
42,"Mo XXII",21,21,"Molybdenum","Sc","Ar3d3","3d3","4F3/2","3d2 3F2",0.953,0.004,"L8672c99"
42,"Mo XXIII",22,20,"Molybdenum","Ca","Ar3d2","3p63d2","3F2","3d 2D3/2",1.019,0.004,"L8672c99"
42,"Mo XXIV",23,19,"Molybdenum","K","Ar3d","3p63d","2D3/2","3p6 1S0",1.082,0.004,"L8672c99"
42,"Mo XXV",24,18,"Molybdenum","Ar","Ne3s23p6","3s23p6","1S0","3p5 2P°3/2",1.263,0.004,"L11770"
42,"Mo XXVI",25,17,"Molybdenum","Cl","Ne3s23p5","3s23p5","2P°3/2","3p4 3P2",1.3196,0.0014,"L11770"
42,"Mo XXVII",26,16,"Molybdenum","S","Ne3s23p4","3s23p4","3P2","3p3 4S°3/2",1.3851,0.0019,"L11770"
42,"Mo XXVIII",27,15,"Molybdenum","P","Ne3s23p3","3s23p3","4S°3/2","3p2 3P0",1.462,0.006,"L11770"
42,"Mo XXIX",28,14,"Molybdenum","Si","Ne3s23p2","3s23p2","3P0","3p 2P°1/2",1.537,0.003,"L11770"
42,"Mo XXX",29,13,"Molybdenum","Al","Ne3s23p","3s23p","2P°1/2","3s2 1S0",1.587,0.008,"L11770"
42,"Mo XXXI",30,12,"Molybdenum","Mg","Ne3s2","2p63s2","1S0","3s 2S1/2",1.7301,0.0025,"L11770"
42,"Mo XXXII",31,11,"Molybdenum","Na","Ne3s","2p63s","2S1/2","2p6 1S0",1.79093,6e-05,"L11770"
42,"Mo XXXIII",32,10,"Molybdenum","Ne","1s22s22p6","2s22p6","1S0","2p5 2P°3/2",4.259,0.0024,"L11770"
42,"Mo XXXIV",33,9,"Molybdenum","F","1s22s22p5","2s22p5","2P°3/2","2p4 3P2",4.43,0.007,"L11770"
42,"Mo XXXV",34,8,"Molybdenum","O","1s22s22p4","2s22p4","3P2","2p21/22p3/2 0,3/2°3/2",4.618,0.01,"L11770"
42,"Mo XXXVI",35,7,"Molybdenum","N","1s22s22p3","2p21/22p3/2","0,3/2°3/2","2p2 3P0",4.8,0.03,"L11770"
42,"Mo XXXVII",36,6,"Molybdenum","C","1s22s22p2","2p2","3P0","2p 2P°1/2",5.084,0.006,"L11770"
42,"Mo XXXVIII",37,5,"Molybdenum","B","1s22s22p","2s22p","2P°1/2","2s2 1S0",5.287,0.004,"L11770"
42,"Mo XXXIX",38,4,"Molybdenum","Be","1s22s2","1s22s2","1S0","2s 2S1/2",5.548,0.005,"L11770"
42,"Mo XL",39,3,"Molybdenum","Li","1s22s","1s22s","2S1/2","1s2 1S0",5.713194,1.6e-05,"L16264c99"
42,"Mo XLI",40,2,"Molybdenum","He","1s2","1s2","1S0","1s 2S1/2",23.810654,6e-06,"L12128"
42,"Mo XLII",41,1,"Molybdenum","H","1s","1s","2S1/2",NA,24.572156,2.5e-05,"L7188"
43,"Tc I",0,43,"Technetium","Tc","Kr4d55s2","4d55s2","6S5/2","4d55s 7S3",0.00711938,3e-08,"L15237"
43,"Tc II",1,42,"Technetium","Mo","Kr4d55s","4d56S5s","7S3","4d5 6S5/2",0.01526,NA,"L3466,L17503"
43,"Tc III",2,41,"Technetium","Nb","Kr4d5","4d5","6S5/2","4d4 5D0",0.02955,NA,"L17276"
43,"Tc IV",3,40,"Technetium","Zr","Kr4d4","4d4","5D0","4d3 4F3/2",0.041,0.0017,"L8672c99"
43,"Tc V",4,39,"Technetium","Y","Kr4d3","4d3","4F3/2","4d2 3F2",0.057,0.0019,"L8672c99"
43,"Tc VI",5,38,"Technetium","Sr","Kr4d2","4d2","3F2","4d 2D3/2",0.072,0.002,"L8672c99"
43,"Tc VII",6,37,"Technetium","Rb","Kr4d","4d","2D3/2","4p6 1S0",0.088,0.002,"L8672c99"
43,"Tc VIII",7,36,"Technetium","Kr","Ar3d104s24p6","4p6","1S0","4p5 2P°3/2",0.15,0.0021,"L8672c99"
43,"Tc IX",8,35,"Technetium","Br","Ar3d104s24p5","4p5","2P°3/2","4p4 3P2",0.169,0.0022,"L8672c99"
43,"Tc X",9,34,"Technetium","Se","Ar3d104s24p4","4p4","3P2","4p3 4S°3/2",0.1899,0.0022,"L8672c99"
43,"Tc XI",10,33,"Technetium","As","Ar3d104s24p3","4p3","4S°3/2","4p2 3P0",0.214,0.0024,"L8672c99"
43,"Tc XII",11,32,"Technetium","Ge","Ar3d104s24p2","4p2","3P0","4p 2P°1/2",0.239,0.0025,"L8672c99"
43,"Tc XIII",12,31,"Technetium","Ga","Ar3d104s24p","4p","2P°1/2","4s2 1S0",0.26208,0.00012,"L6833"
43,"Tc XIV",13,30,"Technetium","Zn","Ar3d104s2","4s2","1S0","4s 2S1/2",0.311,0.003,"L8672c99"
43,"Tc XV",14,29,"Technetium","Cu","Ar3d104s","4s","2S1/2","3d10 1S0",0.33855,0.00017,"L10278"
43,"Tc XVI",15,28,"Technetium","Ni","Ar3d10","3d10","1S0","3d9 2D5/2",0.604,0.003,"L8672c99"
43,"Tc XVII",16,27,"Technetium","Co","Ar3d9","3d9","2D5/2","3d8 3F4",0.655,0.003,"L8672c99"
43,"Tc XVIII",17,26,"Technetium","Fe","Ar3d8","3d8","3F4","3d7 4F9/2",0.713,0.003,"L8672c99"
43,"Tc XIX",18,25,"Technetium","Mn","Ar3d7","3d7","4F9/2","3d6 5D4",0.773,0.003,"L8672c99"
43,"Tc XX",19,24,"Technetium","Cr","Ar3d6","3d6","5D4","3d5 6S5/2",0.829,0.004,"L8672c99"
43,"Tc XXI",20,23,"Technetium","V","Ar3d5","3d5","6S5/2","3d4 5D0",0.904,0.004,"L8672c99"
43,"Tc XXII",21,22,"Technetium","Ti","Ar3d4","3d4","5D0","3d3 4F3/2",0.968,0.004,"L8672c99"
43,"Tc XXIII",22,21,"Technetium","Sc","Ar3d3","3d3","4F3/2","3d2 3F2",1.032,0.004,"L8672c99"
43,"Tc XXIV",23,20,"Technetium","Ca","Ar3d2","3d2","3F2","3d 2D3/2",1.102,0.004,"L8672c99"
43,"Tc XXV",24,19,"Technetium","K","Ar3d","3d","2D3/2","3p6 1S0",1.166,0.004,"L8672c99"
43,"Tc XXVI",25,18,"Technetium","Ar","Ne3s23p6","3p6","1S0","3p5 2P°3/2",1.354,0.004,"L11770"
43,"Tc XXVII",26,17,"Technetium","Cl","Ne3s23p5","3p5","2P°3/2","3p4 3P2",1.4116,0.0015,"L11770"
43,"Tc XXVIII",27,16,"Technetium","S","Ne3s23p4","3p4","3P2","3p3 4S°3/2",1.4795,0.002,"L11770"
43,"Tc XXIX",28,15,"Technetium","P","Ne3s23p3","3p3","4S°3/2","3p2 3P0",1.559,0.006,"L11770"
43,"Tc XXX",29,14,"Technetium","Si","Ne3s23p2","3p2","3P0","3p 2P°1/2",1.638,0.004,"L11770"
43,"Tc XXXI",30,13,"Technetium","Al","Ne3s23p","3p","2P°1/2","3s2 1S0",1.689,0.008,"L11770"
43,"Tc XXXII",31,12,"Technetium","Mg","Ne3s2","3s2","1S0","3s 2S1/2",1.838,0.003,"L11770"
43,"Tc XXXIII",32,11,"Technetium","Na","Ne3s","3s","2S1/2","2p6 1S0",1.90028,6e-05,"L11770"
43,"Tc XXXIV",33,10,"Technetium","Ne","1s22s22p6","2p6","1S0","2p5 2P°3/2",4.505,0.0025,"L11770"
43,"Tc XXXV",34,9,"Technetium","F","1s22s22p5","2p5","2P°3/2","2p4 3P2",4.681,0.008,"L11770"
43,"Tc XXXVI",35,8,"Technetium","O","1s22s22p4","2p4","3P2","2p21/22p3/2 0,3/2°3/2",4.874,0.01,"L11770"
43,"Tc XXXVII",36,7,"Technetium","N","1s22s22p3","2p21/22p3/2","0,3/2°3/2","2p2 3P0",5.06,0.04,"L11770"
43,"Tc XXXVIII",37,6,"Technetium","C","1s22s22p2","2p2","3P0","2p 2P°1/2",5.361,0.006,"L11770"
43,"Tc XXXIX",38,5,"Technetium","B","1s22s22p","2p","2P°1/2","2s2 1S0",5.57,0.004,"L11770"
43,"Tc XL",39,4,"Technetium","Be","1s22s2","2s2","1S0","2s 2S1/2",5.838,0.006,"L11770"
43,"Tc XLI",40,3,"Technetium","Li","1s22s","2s","2S1/2","1s2 1S0",6.008391,1.7e-05,"L16264c99"
43,"Tc XLII",41,2,"Technetium","He","1s2","1s2","1S0","1s 2S1/2",25.004533,1.7e-05,"L12128"
43,"Tc XLIII",42,1,"Technetium","H","1s","1s","2S1/2",NA,25.78699,2.5e-05,"L7188"
44,"Ru I",0,44,"Ruthenium","Ru","Kr4d75s","4d74F5s","5F5","4d7 4F9/2",0.0073605,5e-08,"L10032"
44,"Ru II",1,43,"Ruthenium","Tc","Kr4d7","4d7","4F9/2","4d6 5D4",0.01676,6e-05,"L17219"
44,"Ru III",2,42,"Ruthenium","Mo","Kr4d6","4d6","5D4","4d5 6S5/2",0.02847,NA,"L3466,L17276"
44,"Ru IV",3,41,"Ruthenium","Nb","Kr4d5","4d5","6S5/2","4d4 5D0",0.045,0.0017,"L8672c99"
44,"Ru V",4,40,"Ruthenium","Zr","Kr4d4","4d4","5D0","4d3 4F3/2",0.059,0.0019,"L8672c99"
44,"Ru VI",5,39,"Ruthenium","Y","Kr4d3","4d3","4F3/2","4d2 3F2",0.076,0.002,"L8672c99"
44,"Ru VII",6,38,"Ruthenium","Sr","Kr4d2","4d2","3F2","4d 2D3/2",0.093,0.002,"L8672c99"
44,"Ru VIII",7,37,"Ruthenium","Rb","Kr4d","4d","2D3/2","4p6 1S0",0.11,0.0021,"L8672c99"
44,"Ru IX",8,36,"Ruthenium","Kr","Ar3d104s24p6","4p6","1S0","4p5 2P°3/2",0.17841,5e-05,"L1798"
44,"Ru X",9,35,"Ruthenium","Br","Ar3d104s24p5","4p5","2P°3/2","4p4 3P2",0.198,0.0022,"L8672c99"
44,"Ru XI",10,34,"Ruthenium","Se","Ar3d104s24p4","4p4","3P2","4p3 4S°3/2",0.2199,0.0024,"L8672c99"
44,"Ru XII",11,33,"Ruthenium","As","Ar3d104s24p3","4p3","4S°3/2","4p2 3P0",0.245,0.0025,"L8672c99"
44,"Ru XIII",12,32,"Ruthenium","Ge","Ar3d104s24p2","4p2","3P0","4p 2P°1/2",0.271,0.003,"L8672c99"
44,"Ru XIV",13,31,"Ruthenium","Ga","Ar3d104s24p","4p","2P°1/2","4s2 1S0",0.2959,9e-05,"L6833"
44,"Ru XV",14,30,"Ruthenium","Zn","Ar3d104s2","4s2","1S0","4s 2S1/2",0.348,0.003,"L8672c99"
44,"Ru XVI",15,29,"Ruthenium","Cu","Ar3d104s","4s","2S1/2","3d10 1S0",0.37625,1e-04,"L5953"
44,"Ru XVII",16,28,"Ruthenium","Ni","Ar3d10","3d10","1S0","3d9 2D5/2",0.67,0.003,"L8672c99"
44,"Ru XVIII",17,27,"Ruthenium","Co","Ar3d9","3d9","2D5/2","3d8 3F4",0.723,0.003,"L8672c99"
44,"Ru XIX",18,26,"Ruthenium","Fe","Ar3d8","3d8","3F4","3d7 4F9/2",0.784,0.003,"L8672c99"
44,"Ru XX",19,25,"Ruthenium","Mn","Ar3d7","3d7","4F9/2","3d6 5D4",0.845,0.004,"L8672c99"
44,"Ru XXI",20,24,"Ruthenium","Cr","Ar3d6","3d6","5D4","3d5 6S5/2",0.905,0.004,"L8672c99"
44,"Ru XXII",21,23,"Ruthenium","V","Ar3d5","3d5","6S5/2","3d4 5D0",0.981,0.004,"L8672c99"
44,"Ru XXIII",22,22,"Ruthenium","Ti","Ar3d4","3d4","5D0","3d3 4F3/2",1.048,0.004,"L8672c99"
44,"Ru XXIV",23,21,"Ruthenium","Sc","Ar3d3","3d3","4F3/2","3d2 3F2",1.115,0.004,"L8672c99"
44,"Ru XXV",24,20,"Ruthenium","Ca","Ar3d2","3d2","3F2","3d 2D3/2",1.187,0.004,"L8672c99"
44,"Ru XXVI",25,19,"Ruthenium","K","Ar3d","3d","2D3/2","3p6 1S0",1.253,0.004,"L8672c99"
44,"Ru XXVII",26,18,"Ruthenium","Ar","Ne3s23p6","3p6","1S0","3p5 2P°3/2",1.447,0.004,"L11770"
44,"Ru XXVIII",27,17,"Ruthenium","Cl","Ne3s23p5","3p5","2P°3/2","3p4 3P2",1.5067,0.0016,"L11770"
44,"Ru XXIX",28,16,"Ruthenium","S","Ne3s23p4","3p4","3P2","3p3 4S°3/2",1.577,0.0021,"L11770"
44,"Ru XXX",29,15,"Ruthenium","P","Ne3s23p3","3p3","4S°3/2","3p2 3P0",1.659,0.006,"L11770"
44,"Ru XXXI",30,14,"Ruthenium","Si","Ne3s23p2","3p2","3P0","3p 2P°1/2",1.743,0.004,"L11770"
44,"Ru XXXII",31,13,"Ruthenium","Al","Ne3s23p","3p","2P°1/2","3s2 1S0",1.794,0.008,"L11770"
44,"Ru XXXIII",32,12,"Ruthenium","Mg","Ne3s2","3s2","1S0","3s 2S1/2",1.949,0.003,"L11770"
44,"Ru XXXIV",33,11,"Ruthenium","Na","Ne3s","3s","2S1/2","2p6 1S0",2.01304,6e-05,"L11770"
44,"Ru XXXV",34,10,"Ruthenium","Ne","1s22s22p6","2p6","1S0","2p5 2P°3/2",4.758,0.003,"L11770"
44,"Ru XXXVI",35,9,"Ruthenium","F","1s22s22p5","2p5","2P°3/2","2p4 3P2",4.939,0.008,"L11770"
44,"Ru XXXVII",36,8,"Ruthenium","O","1s22s22p4","2p4","3P2","2p21/22p3/2 0,3/2°3/2",5.136,0.011,"L11770"
44,"Ru XXXVIII",37,7,"Ruthenium","N","1s22s22p3","2p21/22p3/2","0,3/2°3/2","2p2 3P0",5.33,0.04,"L11770"
44,"Ru XXXIX",38,6,"Ruthenium","C","1s22s22p2","2p2","3P0","2p 2P°1/2",5.647,0.006,"L11770"
44,"Ru XL",39,5,"Ruthenium","B","1s22s22p","2p","2P°1/2","2s2 1S0",5.861,0.004,"L11770"
44,"Ru XLI",40,4,"Ruthenium","Be","1s22s2","2s2","1S0","2s 2S1/2",6.137,0.006,"L11770"
44,"Ru XLII",41,3,"Ruthenium","Li","1s22s","2s","2S1/2","1s2 1S0",6.311721,1.9e-05,"L16264c99"
44,"Ru XLIII",42,2,"Ruthenium","He","1s2","1s2","1S0","1s 2S1/2",26.229895,7e-06,"L12128"
44,"Ru XLIV",43,1,"Ruthenium","H","1s","1s","2S1/2",NA,27.033502,2.5e-05,"L7188"
45,"Rh I",0,45,"Rhodium","Rh","Kr4d85s","4d83F5s","4F9/2","4d8 3F4",0.0074589,5e-08,"L10032"
45,"Rh II",1,44,"Rhodium","Ru","Kr4d8","4d8","3F4","4d7 4F9/2",0.01808,NA,"L3466"
45,"Rh III",2,43,"Rhodium","Tc","Kr4d7","4d7","4F9/2","4d6 5D4",0.03106,NA,"L3466,L17276"
45,"Rh IV",3,42,"Rhodium","Mo","Kr4d6","4d6","5D4","4d5 6S5/2",0.042,0.0017,"L8672c99"
45,"Rh V",4,41,"Rhodium","Nb","Kr4d5","4d5","6S5/2","4d4 5D0",0.063,0.0019,"L8672c99"
45,"Rh VI",5,40,"Rhodium","Zr","Kr4d4","4d4","5D0","4d3 4F3/2",0.08,0.002,"L8672c99"
45,"Rh VII",6,39,"Rhodium","Y","Kr4d3","4d3","4F3/2","4d2 3F2",0.097,0.002,"L8672c99"
45,"Rh VIII",7,38,"Rhodium","Sr","Kr4d2","4d2","3F2","4d 2D3/2",0.1151,0.0021,"L8672c99"
45,"Rh IX",8,37,"Rhodium","Rb","Kr4d","4d","2D3/2","4p6 1S0",0.135,0.0022,"L8672c99"
45,"Rh X",9,36,"Rhodium","Kr","Ar3d104s24p6","4p6","1S0","4p5 2P°3/2",0.20751,5e-05,"L1798"
45,"Rh XI",10,35,"Rhodium","Br","Ar3d104s24p5","4p5","2P°3/2","4p4 3P2",0.228,0.0024,"L8672c99"
45,"Rh XII",11,34,"Rhodium","Se","Ar3d104s24p4","4p4","3P2","4p3 4S°3/2",0.2521,0.0025,"L8672c99"
45,"Rh XIII",12,33,"Rhodium","As","Ar3d104s24p3","4p3","4S°3/2","4p2 3P0",0.277,0.003,"L8672c99"
45,"Rh XIV",13,32,"Rhodium","Ge","Ar3d104s24p2","4p2","3P0","4p 2P°1/2",0.306,0.003,"L8672c99"
45,"Rh XV",14,31,"Rhodium","Ga","Ar3d104s24p","4p","2P°1/2","4s2 1S0",0.33158,0.00014,"L6833"
45,"Rh XVI",15,30,"Rhodium","Zn","Ar3d104s2","4s2","1S0","4s 2S1/2",0.3893,5e-04,"L13202"
45,"Rh XVII",16,29,"Rhodium","Cu","Ar3d104s","4s","2S1/2","3d10 1S0",0.41597,0.00014,"L5953"
45,"Rh XVIII",17,28,"Rhodium","Ni","Ar3d10","3d10","1S0","3d9 2D5/2",0.739,0.003,"L8672c99"
45,"Rh XIX",18,27,"Rhodium","Co","Ar3d9","3d9","2D5/2","3d8 3F4",0.794,0.003,"L8672c99"
45,"Rh XX",19,26,"Rhodium","Fe","Ar3d8","3d8","3F4","3d7 4F9/2",0.857,0.004,"L8672c99"
45,"Rh XXI",20,25,"Rhodium","Mn","Ar3d7","3d7","4F9/2","3d6 5D4",0.921,0.004,"L8672c99"
45,"Rh XXII",21,24,"Rhodium","Cr","Ar3d6","3d6","5D4","3d5 6S5/2",0.984,0.004,"L8672c99"
45,"Rh XXIII",22,23,"Rhodium","V","Ar3d5","3d5","6S5/2","3d4 5D0",1.061,0.004,"L8672c99"
45,"Rh XXIV",23,22,"Rhodium","Ti","Ar3d4","3d4","5D0","3d3 4F3/2",1.131,0.004,"L8672c99"
45,"Rh XXV",24,21,"Rhodium","Sc","Ar3d3","3d3","4F3/2","3d2 3F2",1.202,0.004,"L8672c99"
45,"Rh XXVI",25,20,"Rhodium","Ca","Ar3d2","3d2","3F2","3d 2D3/2",1.274,0.004,"L8672c99"
45,"Rh XXVII",26,19,"Rhodium","K","Ar3d","3d","2D3/2","3p6 1S0",1.344,0.004,"L8672c99"
45,"Rh XXVIII",27,18,"Rhodium","Ar","Ne3s23p6","3p6","1S0","3p5 2P°3/2",1.544,0.005,"L11770"
45,"Rh XXIX",28,17,"Rhodium","Cl","Ne3s23p5","3p5","2P°3/2","3p4 3P2",1.6049,0.0017,"L11770"
45,"Rh XXX",29,16,"Rhodium","S","Ne3s23p4","3p4","3P2","3p3 4S°3/2",1.6776,0.0022,"L11770"
45,"Rh XXXI",30,15,"Rhodium","P","Ne3s23p3","3p3","4S°3/2","3p2 3P0",1.763,0.007,"L11770"
45,"Rh XXXII",31,14,"Rhodium","Si","Ne3s23p2","3p2","3P0","3p 2P°1/2",1.851,0.004,"L11770"
45,"Rh XXXIII",32,13,"Rhodium","Al","Ne3s23p","3p","2P°1/2","3s2 1S0",1.903,0.009,"L11770"
45,"Rh XXXIV",33,12,"Rhodium","Mg","Ne3s2","3s2","1S0","3s 2S1/2",2.063,0.003,"L11770"
45,"Rh XXXV",34,11,"Rhodium","Na","Ne3s","3s","2S1/2","2p6 1S0",2.12922,7e-05,"L11770"
45,"Rh XXXVI",35,10,"Rhodium","Ne","1s22s22p6","2p6","1S0","2p5 2P°3/2",5.018,0.003,"L11770"
45,"Rh XXXVII",36,9,"Rhodium","F","1s22s22p5","2p5","2P°3/2","2p4 3P2",5.203,0.008,"L11770"
45,"Rh XXXVIII",37,8,"Rhodium","O","1s22s22p4","2p4","3P2","2p21/22p3/2 0,3/2°3/2",5.406,0.011,"L11770"
45,"Rh XXXIX",38,7,"Rhodium","N","1s22s22p3","2p21/22p3/2","0,3/2°3/2","2p2 3P0",5.6,0.04,"L11770"
45,"Rh XL",39,6,"Rhodium","C","1s22s22p2","2p2","3P0","2p 2P°1/2",5.94,0.007,"L11770"
45,"Rh XLI",40,5,"Rhodium","B","1s22s22p","2p","2P°1/2","2s2 1S0",6.161,0.005,"L11770"
45,"Rh XLII",41,4,"Rhodium","Be","1s22s2","2s2","1S0","2s 2S1/2",6.444,0.006,"L11770"
45,"Rh XLIII",42,3,"Rhodium","Li","1s22s","2s","2S1/2","1s2 1S0",6.623262,2e-05,"L16264c99"
45,"Rh XLIV",43,2,"Rhodium","He","1s2","1s2","1S0","1s 2S1/2",27.486983,7e-06,"L12128"
45,"Rh XLV",44,1,"Rhodium","H","1s","1s","2S1/2",NA,28.311965,2.5e-05,"L7188"
46,"Pd I",0,46,"Palladium","Pd","Kr4d10","4d10","1S0","4d9 2D5/2",0.008336839,1e-08,"L20363"
46,"Pd II",1,45,"Palladium","Rh","Kr4d9","4d9","2D5/2","4d8 3F4",0.01943,0.00012,"L3466,L17501"
46,"Pd III",2,44,"Palladium","Ru","Kr4d8","4d8","3F4","4d7 4F9/2",0.03293,NA,"L17276"
46,"Pd IV",3,43,"Palladium","Tc","Kr4d7","4d7","4F9/2","4d6 5D4",0.046,0.0017,"L8672c99"
46,"Pd V",4,42,"Palladium","Mo","Kr4d6","4d6","5D4","4d5 6S5/2",0.061,0.0019,"L8672c99"
46,"Pd VI",5,41,"Palladium","Nb","Kr4d5","4d5","6S5/2","4d4 5D0",0.0841,0.002,"L8672c99"
46,"Pd VII",6,40,"Palladium","Zr","Kr4d4","4d4","5D0","4d3 4F3/2",0.101,0.002,"L8672c99"
46,"Pd VIII",7,39,"Palladium","Y","Kr4d3","4d3","4F3/2","4d2 3F2",0.12,0.0021,"L8672c99"
46,"Pd IX",8,38,"Palladium","Sr","Kr4d2","4d2","3F2","4d 2D3/2",0.141,0.0022,"L8672c99"
46,"Pd X",9,37,"Palladium","Rb","Kr4d","4d","2D3/2","4p6 1S0",0.1599,0.0022,"L8672c99"
46,"Pd XI",10,36,"Palladium","Kr","Ar3d104s24p6","4p6","1S0","4p5 2P°3/2",0.23857,0.00012,"L1798"
46,"Pd XII",11,35,"Palladium","Br","Ar3d104s24p5","4p5","2P°3/2","4p4 3P2",0.26,0.0025,"L8672c99"
46,"Pd XIII",12,34,"Palladium","Se","Ar3d104s24p4","4p4","3P2","4p3 4S°3/2",0.286,0.003,"L8672c99"
46,"Pd XIV",13,33,"Palladium","As","Ar3d104s24p3","4p3","4S°3/2","4p2 3P0",0.311,0.003,"L8672c99"
46,"Pd XV",14,32,"Palladium","Ge","Ar3d104s24p2","4p2","3P0","4p 2P°1/2",0.342,0.003,"L8672c99"
46,"Pd XVI",15,31,"Palladium","Ga","Ar3d104s24p","4p","2P°1/2","4s2 1S0",0.3691,0.00015,"L6833"
46,"Pd XVII",16,30,"Palladium","Zn","Ar3d104s2","4s2","1S0","4s 2S1/2",0.427,0.003,"L8672c99"
46,"Pd XVIII",17,29,"Palladium","Cu","Ar3d104s","4s","2S1/2","3d10 1S0",0.4575,0.00015,"L5953"
46,"Pd XIX",18,28,"Palladium","Ni","Ar3d10","3d10","1S0","3d9 2D5/2",0.81,0.003,"L8672c99"
46,"Pd XX",19,27,"Palladium","Co","Ar3d9","3d9","2D5/2","3d8 3F4",0.869,0.004,"L8672c99"
46,"Pd XXI",20,26,"Palladium","Fe","Ar3d8","3d8","3F4","3d7 4F9/2",0.933,0.004,"L8672c99"
46,"Pd XXII",21,25,"Palladium","Mn","Ar3d7","3d7","4F9/2","3d6 5D4",1,0.004,"L8672c99"
46,"Pd XXIII",22,24,"Palladium","Cr","Ar3d6","3d6","5D4","3d5 6S5/2",1.065,0.004,"L8672c99"
46,"Pd XXIV",23,23,"Palladium","V","Ar3d5","3d5","6S5/2","3d4 5D0",1.145,0.004,"L8672c99"
46,"Pd XXV",24,22,"Palladium","Ti","Ar3d4","3d4","5D0","3d3 4F3/2",1.218,0.004,"L8672c99"
46,"Pd XXVI",25,21,"Palladium","Sc","Ar3d3","3d3","4F3/2","3d2 3F2",1.29,0.004,"L8672c99"
46,"Pd XXVII",26,20,"Palladium","Ca","Ar3d2","3d2","3F2","3d 2D3/2",1.366,0.004,"L8672c99"
46,"Pd XXVIII",27,19,"Palladium","K","Ar3d","3d","2D3/2","3p6 1S0",1.438,0.004,"L8672c99"
46,"Pd XXIX",28,18,"Palladium","Ar","Ne3s23p6","3p6","1S0","3p5 2P°3/2",1.644,0.005,"L11770"
46,"Pd XXX",29,17,"Palladium","Cl","Ne3s23p5","3p5","2P°3/2","3p4 3P2",1.7062,0.0018,"L11770"
46,"Pd XXXI",30,16,"Palladium","S","Ne3s23p4","3p4","3P2","3p3 4S°3/2",1.7813,0.0023,"L11770"
46,"Pd XXXII",31,15,"Palladium","P","Ne3s23p3","3p3","4S°3/2","3p2 3P0",1.869,0.007,"L11770"
46,"Pd XXXIII",32,14,"Palladium","Si","Ne3s23p2","3p2","3P0","3p 2P°1/2",1.962,0.004,"L11770"
46,"Pd XXXIV",33,13,"Palladium","Al","Ne3s23p","3p","2P°1/2","3s2 1S0",2.016,0.009,"L11770"
46,"Pd XXXV",34,12,"Palladium","Mg","Ne3s2","3s2","1S0","3s 2S1/2",2.181,0.003,"L11770"
46,"Pd XXXVI",35,11,"Palladium","Na","Ne3s","3s","2S1/2","2p6 1S0",2.24887,7e-05,"L11770"
46,"Pd XXXVII",36,10,"Palladium","Ne","1s22s22p6","2p6","1S0","2p5 2P°3/2",5.284,0.003,"L11770"
46,"Pd XXXVIII",37,9,"Palladium","F","1s22s22p5","2p5","2P°3/2","2p4 3P2",5.475,0.009,"L11770"
46,"Pd XXXIX",38,8,"Palladium","O","1s22s22p4","2p4","3P2","2p21/22p3/2 0,3/2°3/2",5.683,0.011,"L11770"
46,"Pd XL",39,7,"Palladium","N","1s22s22p3","2p21/22p3/2","0,3/2°3/2","2p2 3P0",5.88,0.04,"L11770"
46,"Pd XLI",40,6,"Palladium","C","1s22s22p2","2p2","3P0","2p 2P°1/2",6.242,0.007,"L11770"
46,"Pd XLII",41,5,"Palladium","B","1s22s22p","2p","2P°1/2","2s2 1S0",6.469,0.005,"L11770"
46,"Pd XLIII",42,4,"Palladium","Be","1s22s2","2s2","1S0","2s 2S1/2",6.759,0.006,"L11770"
46,"Pd XLIV",43,3,"Palladium","Li","1s22s","2s","2S1/2","1s2 1S0",6.943097,2.2e-05,"L16264c99"