"Z","Species","CS","Occ","Element","Iso_elec","Ground_Shells","Ground_Config","Ground_Level","Ionized_Level","IE","IE_uncertainty","References"
55,"Cs XXXVI",35,20,"Cesium","Ca","Ar3d2","3d2","3F2","3d 2D3/2",2.329,0.005,"L8672c99"
55,"Cs XXXVII",36,19,"Cesium","K","Ar3d","3d","2D3/2","3p6 1S0",2.422,0.005,"L8672c99"
55,"Cs XXXVIII",37,18,"Cesium","Ar","Ne3s23p6","3p6","1S0","3p5 2P°3/2",2.683,0.004,"L8672c99"
55,"Cs XXXIX",38,17,"Cesium","Cl","Ne3s23p5","3s23p5","2P°3/2","3p4 3P2",2.767,0.004,"L8672c99"
55,"Cs XL",39,16,"Cesium","S","Ne3s23p4","3s23p4","3P2","3p3 4S°3/2",2.859,0.004,"L8672c99"
55,"Cs XLI",40,15,"Cesium","P","Ne3s23p3","3s23p3","4S°3/2","3p2 3P0",2.945,0.004,"L8672c99"
55,"Cs XLII",41,14,"Cesium","Si","Ne3s23p2","3s23p2","3P0","3p 2P°1/2",3.118,0.004,"L8672c99"
55,"Cs XLIII",42,13,"Cesium","Al","Ne3s23p","3s23p","2P°1/2","3s2 1S0",3.214,0.004,"L8672c99"
55,"Cs XLIV",43,12,"Cesium","Mg","Ne3s2","3s2","1S0","3s 2S1/2",3.392,0.004,"L8672c99"
55,"Cs XLV",44,11,"Cesium","Na","Ne3s","3s","2S1/2","2p6 1S0",3.485,0.004,"L8672c99"
55,"Cs XLVI",45,10,"Cesium","Ne","1s22s22p6","2s22p6","1S0","2p5 2P°3/2",7.989,0.004,"L8672c99"
55,"Cs XLVII",46,9,"Cesium","F","1s22s22p5","2s22p5","2P°3/2","2p4 3P2",8.224,0.004,"L8672c99"
55,"Cs XLVIII",47,8,"Cesium","O","1s22s22p4","2s22p21/22p23/2","0,22","2p21/22p3/2 0,3/2°3/2",8.484,0.004,"L8672c99"
55,"Cs XLIX",48,7,"Cesium","N","1s22s22p3","2s22p21/22p3/2","0,3/2°3/2","2p2 3P0",8.726,0.004,"L8672c99"
55,"Cs L",49,6,"Cesium","C","1s22s22p2","2p2","3P0","2p 2P°1/2",9.35,0.004,"L8672c99"
55,"Cs LI",50,5,"Cesium","B","1s22s22p","2s22p","2P°1/2","2s2 1S0",9.629,0.004,"L8672c99"
55,"Cs LII",51,4,"Cesium","Be","1s22s2","2s2","1S0","2s 2S1/2",9.974,0.004,"L8672c99"
55,"Cs LIII",52,3,"Cesium","Li","1s22s","2s","2S1/2","1s2 1S0",10.20878,5e-05,"L16264c99"
55,"Cs LIV",53,2,"Cesium","He","1s2","1s2","1S0","1s 2S1/2",41.861075,1.7e-05,"L12128"
55,"Cs LV",54,1,"Cesium","H","1s","1s","2S1/2",NA,42.91299,5e-05,"L7188"
56,"Ba I",0,56,"Barium","Ba","Xe6s2","6s2","1S0","5s25p66s 2S1/2",0.0052116646,1.2e-09,"L6347,L9224"
56,"Ba II",1,55,"Barium","Cs","Xe6s","6s","2S1/2","5s25p6 1S0",0.010003826,1.2e-08,"L9224"
56,"Ba III",2,54,"Barium","Xe","Cd5p6","5p6","1S0","5s25p5 2P°3/2",0.0358438,2.5e-06,"L3667"
56,"Ba IV",3,53,"Barium","I","Cd5p5","5s25p5","2P°3/2","5s25p4 3P2",0.047,3e-04,"L11023"
56,"Ba V",4,52,"Barium","Te","Cd5p4","5s25p4","3P2","5s25p3 4S°3/2",0.058,0.0019,"L8672c99"
56,"Ba VI",5,51,"Barium","Sb","Cd5p3","5s25p3","4S°3/2","5s25p2 3P0",0.071,0.002,"L8672c99"
56,"Ba VII",6,50,"Barium","Sn","Cd5p2","5s25p2","3P0","5s25p 2P°1/2",0.086,0.002,"L8672c99"
56,"Ba VIII",7,49,"Barium","In","Cd5p","5s25p","2P°1/2","5s2 1S0",0.101,0.0021,"L8672c99"
56,"Ba IX",8,48,"Barium","Cd","Kr4d105s2","5s2","1S0","5s 2S1/2",0.1305,6e-04,"L6980"
56,"Ba X",9,47,"Barium","Ag","Kr4d105s","5s","2S1/2","4d10 1S0",0.14652,0.00012,"L5438"
56,"Ba XI",10,46,"Barium","Pd","Kr4d10","4d10","1S0","4d9 2D5/2",0.241,0.0024,"L8672c99"
56,"Ba XII",11,45,"Barium","Rh","Kr4d9","4d9","2D5/2","4d8 3F4",0.2671,0.0025,"L8672c99"
56,"Ba XIII",12,44,"Barium","Ru","Kr4d8","4d8","3F4","4d7 4F9/2",0.296,0.003,"L8672c99"
56,"Ba XIV",13,43,"Barium","Tc","Kr4d7","4d7","4F9/2","4d6 5D4",0.325,0.003,"L8672c99"
56,"Ba XV",14,42,"Barium","Mo","Kr4d6","4d6","5D4","4d5 6S5/2",0.354,0.003,"L8672c99"
56,"Ba XVI",15,41,"Barium","Nb","Kr4d5","4d5","6S5/2","4d4 5D0",0.39,0.003,"L8672c99"
56,"Ba XVII",16,40,"Barium","Zr","Kr4d4","4d4","5D0","4d3 4F3/2",0.422,0.003,"L8672c99"
56,"Ba XVIII",17,39,"Barium","Y","Kr4d3","4d3","4F3/2","4d2 3F2",0.455,0.003,"L8672c99"
56,"Ba XIX",18,38,"Barium","Sr","Kr4d2","4d2","3F2","4d 2D3/2",0.488,0.003,"L8672c99"
56,"Ba XX",19,37,"Barium","Rb","Kr4d","4p64d","2D3/2","4p6 1S0",0.52,0.004,"L8672c99"
56,"Ba XXI",20,36,"Barium","Kr","Ar3d104s24p6","4p6","1S0","4p5 2P°3/2",0.646,0.004,"L8672c99"
56,"Ba XXII",21,35,"Barium","Br","Ar3d104s24p5","4p5","2P°3/2","4p4 3P2",0.679,0.004,"L8672c99"
56,"Ba XXIII",22,34,"Barium","Se","Ar3d104s24p4","4p4","3P2","4p3 4S°3/2",0.717,0.004,"L8672c99"
56,"Ba XXIV",23,33,"Barium","As","Ar3d104s24p3","4p3","4S°3/2","4p2 3P0",0.752,0.004,"L8672c99"
56,"Ba XXV",24,32,"Barium","Ge","Ar3d104s24p2","3d104s24p2","3P0","4p 2P°1/2",0.809,0.004,"L8672c99"
56,"Ba XXVI",25,31,"Barium","Ga","Ar3d104s24p","4s24p","2P°1/2","4s2 1S0",0.846,0.004,"L8672c99"
56,"Ba XXVII",26,30,"Barium","Zn","Ar3d104s2","4s2","1S0","4s 2S1/2",0.935,0.004,"L8672c99"
56,"Ba XXVIII",27,29,"Barium","Cu","Ar3d104s","4s","2S1/2","3d10 1S0",0.97662,0.00011,"L5473"
56,"Ba XXIX",28,28,"Barium","Ni","Ar3d10","3d10","1S0","3d9 2D5/2",1.695,0.004,"L8672c99"
56,"Ba XXX",29,27,"Barium","Co","Ar3d9","3d9","2D5/2","3d8 3F4",1.776,0.004,"L8672c99"
56,"Ba XXXI",30,26,"Barium","Fe","Ar3d8","3p63d43/23d45/2","0,44","3d7 4F9/2",1.864,0.004,"L8672c99"
56,"Ba XXXII",31,25,"Barium","Mn","Ar3d7","3d7","4F9/2","3d6 5D4",1.958,0.004,"L8672c99"
56,"Ba XXXIII",32,24,"Barium","Cr","Ar3d6","3d6","5D4","3d5 6S5/2",2.047,0.004,"L8672c99"
56,"Ba XXXIV",33,23,"Barium","V","Ar3d5","3d5","6S5/2","3d4 5D0",2.142,0.005,"L8672c99"
56,"Ba XXXV",34,22,"Barium","Ti","Ar3d4","3d4","5D0","3d3 4F3/2",2.256,0.005,"L8672c99"
56,"Ba XXXVI",35,21,"Barium","Sc","Ar3d3","3d3","4F3/2","3d2 3F2",2.349,0.005,"L8672c99"
56,"Ba XXXVII",36,20,"Barium","Ca","Ar3d2","3d2","3F2","3d 2D3/2",2.452,0.005,"L8672c99"
56,"Ba XXXVIII",37,19,"Barium","K","Ar3d","3d","2D3/2","3p6 1S0",2.547,0.004,"L8672c99"
56,"Ba XXXIX",38,18,"Barium","Ar","Ne3s23p6","3p6","1S0","3p5 2P°3/2",2.814,0.004,"L8672c99"
56,"Ba XL",39,17,"Barium","Cl","Ne3s23p5","3s23p5","2P°3/2","3p4 3P2",2.901,0.004,"L8672c99"
56,"Ba XLI",40,16,"Barium","S","Ne3s23p4","3s23p4","3P2","3p3 4S°3/2",2.994,0.004,"L8672c99"
56,"Ba XLII",41,15,"Barium","P","Ne3s23p3","3s23p3","4S°3/2","3p2 3P0",3.081,0.004,"L8672c99"
56,"Ba XLIII",42,14,"Barium","Si","Ne3s23p2","3s23p2","3P0","3p 2P°1/2",3.266,0.004,"L8672c99"
56,"Ba XLIV",43,13,"Barium","Al","Ne3s23p","3s23p","2P°1/2","3s2 1S0",3.363,0.004,"L8672c99"
56,"Ba XLV",44,12,"Barium","Mg","Ne3s2","3s2","1S0","3s 2S1/2",3.546,0.004,"L8672c99"
56,"Ba XLVI",45,11,"Barium","Na","Ne3s","3s","2S1/2","2p6 1S0",3.64,0.004,"L8672c99"
56,"Ba XLVII",46,10,"Barium","Ne","1s22s22p6","2p6","1S0","2p5 2P°3/2",8.326,0.004,"L8672c99"
56,"Ba XLVIII",47,9,"Barium","F","1s22s22p5","2s22p5","2P°3/2","2p4 3P2",8.565,0.004,"L8672c99"
56,"Ba XLIX",48,8,"Barium","O","1s22s22p4","2s22p21/22p23/2","0,22","2p21/22p3/2 0,3/2°3/2",8.831,0.004,"L8672c99"
56,"Ba L",49,7,"Barium","N","1s22s22p3","2s22p21/22p3/2","0,3/2°3/2","2p2 3P0",9.077,0.004,"L8672c99"
56,"Ba LI",50,6,"Barium","C","1s22s22p2","2p2","3P0","2p 2P°1/2",9.739,0.004,"L8672c99"
56,"Ba LII",51,5,"Barium","B","1s22s22p","2s22p","2P°1/2","2s2 1S0",10.023,0.004,"L8672c99"
56,"Ba LIII",52,4,"Barium","Be","1s22s2","2s2","1S0","2s 2S1/2",10.376,0.004,"L8672c99"
56,"Ba LIV",53,3,"Barium","Li","1s22s","2s","2S1/2","1s2 1S0",10.61642,5e-05,"L16264c99"
56,"Ba LV",54,2,"Barium","He","1s2","1s2","1S0","1s 2S1/2",43.485366,1.9e-05,"L12128"
56,"Ba LVI",55,1,"Barium","H","1s","1s","2S1/2",NA,44.56147,6e-05,"L7188"
57,"La I",0,57,"Lanthanum","La","Xe5d6s2","5d6s2","2D3/2","5s25p65d2 3F2",0.0055769,6e-07,"L3974,L16228"
57,"La II",1,56,"Lanthanum","Ba","Xe5d2","5d2","3F2","5s25p65d 2D3/2",0.01118496,6e-08,"L8469"
57,"La III",2,55,"Lanthanum","Cs","Xe5d","5p65d","2D3/2","5s25p6 1S0",0.0191773,6e-07,"L3974,L3420"
57,"La IV",3,54,"Lanthanum","Xe","Cd5p6","5p6","1S0","5s25p5 2P°3/2",0.04995,6e-05,"L3974"
57,"La V",4,53,"Lanthanum","I","Cd5p5","5s25p5","2P°3/2","5s25p4 3P2",0.0616,6e-04,"L3974,L3749"
57,"La VI",5,52,"Lanthanum","Te","Cd5p4","5s25p4","3P2","5s25p3 4S°3/2",0.074,0.002,"L8672c99"
57,"La VII",6,51,"Lanthanum","Sb","Cd5p3","5s25p3","4S°3/2","5s25p2 3P0",0.088,0.002,"L8672c99"
57,"La VIII",7,50,"Lanthanum","Sn","Cd5p2","5s25p2","3P0","5s25p 2P°1/2",0.105,0.0021,"L8672c99"
57,"La IX",8,49,"Lanthanum","In","Cd5p","5s25p","2P°1/2","5s2 1S0",0.119,0.0022,"L8672c99"
57,"La X",9,48,"Lanthanum","Cd","Kr4d105s2","5s2","1S0","5s 2S1/2",0.1514,7e-04,"L6980"
57,"La XI",10,47,"Lanthanum","Ag","Kr4d105s","5s","2S1/2","4d10 1S0",0.16877,0.00012,"L5438"
57,"La XII",11,46,"Lanthanum","Pd","Kr4d10","4d10","1S0","4d9 2D5/2",0.275,0.0025,"L8672c99"
57,"La XIII",12,45,"Lanthanum","Rh","Kr4d9","4d9","2D5/2","4d8 3F4",0.303,0.003,"L8672c99"
57,"La XIV",13,44,"Lanthanum","Ru","Kr4d8","4d8","3F4","4d7 4F9/2",0.332,0.003,"L8672c99"
57,"La XV",14,43,"Lanthanum","Tc","Kr4d7","4d7","4F9/2","4d6 5D4",0.364,0.003,"L8672c99"
57,"La XVI",15,42,"Lanthanum","Mo","Kr4d6","4d6","5D4","4d5 6S5/2",0.393,0.003,"L8672c99"
57,"La XVII",16,41,"Lanthanum","Nb","Kr4d5","4d5","6S5/2","4d4 5D0",0.431,0.003,"L8672c99"
57,"La XVIII",17,40,"Lanthanum","Zr","Kr4d4","4d4","5D0","4d3 4F3/2",0.464,0.003,"L8672c99"
57,"La XIX",18,39,"Lanthanum","Y","Kr4d3","4d3","4F3/2","4d2 3F2",0.498,0.003,"L8672c99"
57,"La XX",19,38,"Lanthanum","Sr","Kr4d2","4d2","3F2","4d 2D3/2",0.533,0.004,"L8672c99"
57,"La XXI",20,37,"Lanthanum","Rb","Kr4d","4d","2D3/2","4p6 1S0",0.566,0.004,"L8672c99"
57,"La XXII",21,36,"Lanthanum","Kr","Ar3d104s24p6","4p6","1S0","4p5 2P°3/2",0.696,0.004,"L8672c99"
57,"La XXIII",22,35,"Lanthanum","Br","Ar3d104s24p5","4p5","2P°3/2","4p4 3P2",0.731,0.004,"L8672c99"
57,"La XXIV",23,34,"Lanthanum","Se","Ar3d104s24p4","4p4","3P2","4p3 4S°3/2",0.77,0.004,"L8672c99"
57,"La XXV",24,33,"Lanthanum","As","Ar3d104s24p3","4p3","4S°3/2","4p2 3P0",0.806,0.004,"L8672c99"
57,"La XXVI",25,32,"Lanthanum","Ge","Ar3d104s24p2","4p2","3P0","4p 2P°1/2",0.865,0.004,"L8672c99"
57,"La XXVII",26,31,"Lanthanum","Ga","Ar3d104s24p","4p","2P°1/2","4s2 1S0",0.906,0.004,"L8672c99"
57,"La XXVIII",27,30,"Lanthanum","Zn","Ar3d104s2","4s2","1S0","4s 2S1/2",0.995,0.004,"L8672c99"
57,"La XXIX",28,29,"Lanthanum","Cu","Ar3d104s","4s","2S1/2","3d10 1S0",1.03909,0.00012,"L5473"
57,"La XXX",29,28,"Lanthanum","Ni","Ar3d10","3d10","1S0","3d9 2D5/2",1.8,0.004,"L8672c99"
57,"La XXXI",30,27,"Lanthanum","Co","Ar3d9","3d9","2D5/2","3d8 3F4",1.884,0.004,"L8672c99"
57,"La XXXII",31,26,"Lanthanum","Fe","Ar3d8","3d8","3F4","3d7 4F9/2",1.974,0.004,"L8672c99"
57,"La XXXIII",32,25,"Lanthanum","Mn","Ar3d7","3d7","4F9/2","3d6 4",2.069,0.004,"L8672c99"
57,"La XXXIV",33,24,"Lanthanum","Cr","Ar3d6","3d6","4","3d5 5/2",2.162,0.005,"L8672c99"
57,"La XXXV",34,23,"Lanthanum","V","Ar3d5","3d5","5/2","3d4 5D0",2.259,0.005,"L8672c99"
57,"La XXXVI",35,22,"Lanthanum","Ti","Ar3d4","3d4","5D0","3d3 4F3/2",2.377,0.005,"L8672c99"
57,"La XXXVII",36,21,"Lanthanum","Sc","Ar3d3","3d3","4F3/2","3d2 3F2",2.473,0.005,"L8672c99"
57,"La XXXVIII",37,20,"Lanthanum","Ca","Ar3d2","3d2","3F2","3d 2D3/2",2.577,0.004,"L8672c99"
57,"La XXXIX",38,19,"Lanthanum","K","Ar3d","3d","2D3/2","3p6 1S0",2.674,0.004,"L8672c99"
57,"La XL",39,18,"Lanthanum","Ar","Ne3s23p6","3p6","1S0","3p5 2P°3/2",2.95,0.004,"L8672c99"
57,"La XLI",40,17,"Lanthanum","Cl","Ne3s23p5","3p5","2P°3/2","3p4 3P2",3.036,0.004,"L8672c99"
57,"La XLII",41,16,"Lanthanum","S","Ne3s23p4","3p4","3P2","3p3 2P°3/2",3.133,0.004,"L8672c99"
57,"La XLIII",42,15,"Lanthanum","P","Ne3s23p3","3p3","2P°3/2","3p2 3P0",3.222,0.004,"L8672c99"
57,"La XLIV",43,14,"Lanthanum","Si","Ne3s23p2","3p2","3P0","3p 2P°1/2",3.416,0.004,"L8672c99"
57,"La XLV",44,13,"Lanthanum","Al","Ne3s23p","3p","2P°1/2","3s2 1S0",3.515,0.004,"L8672c99"
57,"La XLVI",45,12,"Lanthanum","Mg","Ne3s2","3s2","1S0","3s 2S1/2",3.704,0.004,"L8672c99"
57,"La XLVII",46,11,"Lanthanum","Na","Ne3s","3s","2S1/2","2p6 1S0",3.8,0.004,"L8672c99"
57,"La XLVIII",47,10,"Lanthanum","Ne","1s22s22p6","2p6","1S0","2p5 2P°3/2",8.669,0.004,"L8672c99"
57,"La XLIX",48,9,"Lanthanum","F","1s22s22p5","2p5","2P°3/2","2p4 3P2",8.914,0.004,"L8672c99"
57,"La L",49,8,"Lanthanum","O","1s22s22p4","2p4","3P2","2p21/22p3/2 0,3/2°3/2",9.184,0.004,"L8672c99"
57,"La LI",50,7,"Lanthanum","N","1s22s22p3","2p21/22p3/2","0,3/2°3/2","2p2 3P0",9.437,0.004,"L8672c99"
57,"La LII",51,6,"Lanthanum","C","1s22s22p2","2p2","3P0","2p 2P°1/2",10.136,0.004,"L8672c99"
57,"La LIII",52,5,"Lanthanum","B","1s22s22p","2p","2P°1/2","2s2 1S0",10.426,0.004,"L8672c99"
57,"La LIV",53,4,"Lanthanum","Be","1s22s2","2s2","1S0","2s 2S1/2",10.789,0.005,"L8672c99"
57,"La LV",54,3,"Lanthanum","Li","1s22s","2s","2S1/2","1s2 1S0",11.0334,5e-05,"L16264c99"
57,"La LVI",55,2,"Lanthanum","He","1s2","1s2","1S0","1s 2S1/2",45.144996,2.2e-05,"L12128"
57,"La LVII",56,1,"Lanthanum","H","1s","1s","2S1/2",NA,46.2456,6e-05,"L7188"
58,"Ce I",0,58,"Cerium","Ce","Xe4f5d6s2","4f5d6s2","1G°4","4f5s25p65d2 4H°7/2",0.0055386,4e-07,"L4277"
58,"Ce II",1,57,"Cerium","La","Xe4f5d2","4f2F°5d23F","4H°7/2","4f25s25p6 3H4",0.010956,2e-05,"L19870c180"
58,"Ce III",2,56,"Cerium","Ba","Xe4f2","4f2","3H4","4f5s25p6 2F°5/2",0.0201974,2.5e-06,"L3974,L3420"
58,"Ce IV",3,55,"Cerium","Cs","Xe4f","5p64f","2F°5/2","5s25p6 1S0",0.036906,9e-06,"L14976"
58,"Ce V",4,54,"Cerium","Xe","Cd5p6","5p6","1S0","5s25p5 2P°3/2",0.06555,0.00025,"L3974"
58,"Ce VI",5,53,"Cerium","I","Cd5p5","5s25p5","2P°3/2","5s25p4 3P2",0.0776,0.0012,"L3974,L3749"
58,"Ce VII",6,52,"Cerium","Te","Cd5p4","5s25p4","3P2","5s25p3 4S°3/2",0.091,0.002,"L8672c99"
58,"Ce VIII",7,51,"Cerium","Sb","Cd5p3","5s25p3","4S°3/2","5s25p2 3P0",0.106,0.0021,"L8672c99"
58,"Ce IX",8,50,"Cerium","Sn","Cd5p2","5s25p2","3P0","5s25p 2P°1/2",0.125,0.0022,"L8672c99"
58,"Ce X",9,49,"Cerium","In","Cd5p","5s25p","2P°1/2","5s2 1S0",0.14,0.0022,"L8672c99"
58,"Ce XI",10,48,"Cerium","Cd","Kr4d105s2","5s2","1S0","5s 2S1/2",0.172,0.0024,"L8672c99"
58,"Ce XII",11,47,"Cerium","Ag","Kr4d105s","5s","2S1/2","4d10 1S0",0.19224,0.00012,"L5532"
58,"Ce XIII",12,46,"Cerium","Pd","Kr4d10","4d10","1S0","4d9 2D5/2",0.312,0.003,"L8672c99"
58,"Ce XIV",13,45,"Cerium","Rh","Kr4d9","4d9","2D5/2","4d8 3F4",0.34,0.003,"L8672c99"
58,"Ce XV",14,44,"Cerium","Ru","Kr4d8","4d8","3F4","4d7 4F9/2",0.371,0.003,"L8672c99"
58,"Ce XVI",15,43,"Cerium","Tc","Kr4d7","4d7","4F9/2","4d6 5D4",0.403,0.003,"L8672c99"
58,"Ce XVII",16,42,"Cerium","Mo","Kr4d6","4d6","5D4","4d5 6S5/2",0.435,0.003,"L8672c99"
58,"Ce XVIII",17,41,"Cerium","Nb","Kr4d5","4d5","6S5/2","4d4 5D0",0.472,0.003,"L8672c99"
58,"Ce XIX",18,40,"Cerium","Zr","Kr4d4","4d4","5D0","4d3 4F3/2",0.509,0.003,"L8672c99"
58,"Ce XX",19,39,"Cerium","Y","Kr4d3","4d3","4F3/2","4d2 3F2",0.543,0.004,"L8672c99"
58,"Ce XXI",20,38,"Cerium","Sr","Kr4d2","4d2","3F2","4d 2D3/2",0.579,0.004,"L8672c99"
58,"Ce XXII",21,37,"Cerium","Rb","Kr4d","4d","2D3/2","4p6 1S0",0.613,0.004,"L8672c99"
58,"Ce XXIII",22,36,"Cerium","Kr","Ar3d104s24p6","4p6","1S0","4p5 2P°3/2",0.749,0.004,"L8672c99"
58,"Ce XXIV",23,35,"Cerium","Br","Ar3d104s24p5","4p5","2P°3/2","4p4 3P2",0.785,0.004,"L8672c99"
58,"Ce XXV",24,34,"Cerium","Se","Ar3d104s24p4","4p4","3P2","4p3 4S°3/2",0.824,0.004,"L8672c99"
58,"Ce XXVI",25,33,"Cerium","As","Ar3d104s24p3","4p3","4S°3/2","4p2 3P0",0.862,0.004,"L8672c99"
58,"Ce XXVII",26,32,"Cerium","Ge","Ar3d104s24p2","4p2","3P0","4p 2P°1/2",0.924,0.004,"L8672c99"
58,"Ce XXVIII",27,31,"Cerium","Ga","Ar3d104s24p","4p","2P°1/2","4s2 1S0",0.965,0.004,"L8672c99"
58,"Ce XXIX",28,30,"Cerium","Zn","Ar3d104s2","4s2","1S0","4s 2S1/2",1.06,0.004,"L8672c99"
58,"Ce XXX",29,29,"Cerium","Cu","Ar3d104s","4s","2S1/2","3d10 1S0",1.1035,5e-04,"L10278"
58,"Ce XXXI",30,28,"Cerium","Ni","Ar3d10","3d10","1S0","3d9 2D5/2",1.908,0.004,"L8672c99"
58,"Ce XXXII",31,27,"Cerium","Co","Ar3d9","3d9","2D5/2","3d8 3F4",1.994,0.004,"L8672c99"
58,"Ce XXXIII",32,26,"Cerium","Fe","Ar3d8","3d8","3F4","3d7 4F9/2",2.087,0.004,"L8672c99"
58,"Ce XXXIV",33,25,"Cerium","Mn","Ar3d7","3d7","4F9/2","3d6 4",2.185,0.005,"L8672c99"
58,"Ce XXXV",34,24,"Cerium","Cr","Ar3d6","3d6","4","3d5 5/2",2.28,0.005,"L8672c99"
58,"Ce XXXVI",35,23,"Cerium","V","Ar3d5","3d5","5/2","3d4 5D0",2.378,0.005,"L8672c99"
58,"Ce XXXVII",36,22,"Cerium","Ti","Ar3d4","3d4","5D0","3d3 4F3/2",2.5,0.005,"L8672c99"
58,"Ce XXXVIII",37,21,"Cerium","Sc","Ar3d3","3d3","4F3/2","3d2 3F2",2.6,0.004,"L8672c99"
58,"Ce XXXIX",38,20,"Cerium","Ca","Ar3d2","3d2","3F2","3d 2D3/2",2.706,0.004,"L8672c99"
58,"Ce XL",39,19,"Cerium","K","Ar3d","3d","2D3/2","3p6 1S0",2.806,0.004,"L8672c99"
58,"Ce XLI",40,18,"Cerium","Ar","Ne3s23p6","3p6","1S0","3p5 2P°3/2",3.087,0.004,"L8672c99"
58,"Ce XLII",41,17,"Cerium","Cl","Ne3s23p5","3p5","2P°3/2","3p4 3P2",3.176,0.004,"L8672c99"
58,"Ce XLIII",42,16,"Cerium","S","Ne3s23p4","3p4","3P2","3p3 2P°3/2",3.274,0.004,"L8672c99"
58,"Ce XLIV",43,15,"Cerium","P","Ne3s23p3","3p3","2P°3/2","3p2 3P0",3.366,0.004,"L8672c99"
58,"Ce XLV",44,14,"Cerium","Si","Ne3s23p2","3p2","3P0","3p 2P°1/2",3.57,0.004,"L8672c99"
58,"Ce XLVI",45,13,"Cerium","Al","Ne3s23p","3p","2P°1/2","3s2 1S0",3.672,0.004,"L8672c99"
58,"Ce XLVII",46,12,"Cerium","Mg","Ne3s2","3s2","1S0","3s 2S1/2",3.865,0.004,"L8672c99"
58,"Ce XLVIII",47,11,"Cerium","Na","Ne3s","3s","2S1/2","2p6 1S0",3.963,0.004,"L8672c99"
58,"Ce XLIX",48,10,"Cerium","Ne","1s22s22p6","2p6","1S0","2p5 2P°3/2",9.02,0.004,"L8672c99"
58,"Ce L",49,9,"Cerium","F","1s22s22p5","2p5","2P°3/2","2p4 3P2",9.269,0.004,"L8672c99"
58,"Ce LI",50,8,"Cerium","O","1s22s22p4","2p4","3P2","2p21/22p3/2 0,3/2°3/2",9.545,0.004,"L8672c99"
58,"Ce LII",51,7,"Cerium","N","1s22s22p3","2p21/22p3/2","0,3/2°3/2","2p2 3P0",9.803,0.004,"L8672c99"
58,"Ce LIII",52,6,"Cerium","C","1s22s22p2","2p2","3P0","2p 2P°1/2",10.542,0.004,"L8672c99"
58,"Ce LIV",53,5,"Cerium","B","1s22s22p","2p","2P°1/2","2s2 1S0",10.84,0.005,"L8672c99"
58,"Ce LV",54,4,"Cerium","Be","1s22s2","2s2","1S0","2s 2S1/2",11.21,0.005,"L8672c99"
58,"Ce LVI",55,3,"Cerium","Li","1s22s","2s","2S1/2","1s2 1S0",11.45985,6e-05,"L16264c99"
58,"Ce LVII",56,2,"Cerium","He","1s2","1s2","1S0","1s 2S1/2",46.840306,2.4e-05,"L12128"
58,"Ce LVIII",57,1,"Cerium","H","1s","1s","2S1/2",NA,47.96572,6e-05,"L7188"
59,"Pr I",0,59,"Praseodymium","Pr","Xe4f36s2","4f36s2","4I°9/2","4f34I°6s 9/2,1/2°4",0.0054702,4e-07,"L19006"
59,"Pr II",1,58,"Praseodymium","Ce","Xe4f36s","4f34I°9/26s1/2","9/2,1/2°4","4f35s25p6 4I°9/2",0.010631,2e-05,"L19870c180"
59,"Pr III",2,57,"Praseodymium","La","Xe4f3","4f3","4I°9/2","4f25s25p6 3H4",0.0216237,2.5e-06,"L3974,L3420"
59,"Pr IV",3,56,"Praseodymium","Ba","Xe4f2","4f2","3H4","4f5s25p6 2F°5/2",0.038981,2.5e-05,"L3974,L3420"
59,"Pr V",4,55,"Praseodymium","Cs","Xe4f","5p64f","2F°5/2","5s25p6 1S0",0.05753,5e-05,"L3974,L4095"
59,"Pr VI",5,54,"Praseodymium","Xe","Cd5p6","5s25p6","1S0","4f5s25p4°",0.082,0.004,"L582"
59,"Pr VII",6,53,"Praseodymium","I","Cd4f5p4","4f5s25p4","°","4f5s25p3",0.097,0.005,"L582"
59,"Pr VIII",7,52,"Praseodymium","Te","Cd4f5p3","4f5s25p3",NA,"4f5s25p2°",0.112,0.006,"L582"
59,"Pr IX",8,51,"Praseodymium","Sb","Cd4f5p2","4f5s25p2","°","5s24f2",0.131,0.007,"L582"
59,"Pr X",9,50,"Praseodymium","Sn","Cd4f2","5s24f2",NA,"5s25p 2P°1/2",0.148,0.007,"L582"
59,"Pr XI",10,49,"Praseodymium","In","Cd5p","5s25p","2P°1/2","5s2 1S0",0.162,0.0024,"L8672c99"
59,"Pr XII",11,48,"Praseodymium","Cd","Kr4d105s2","5s2","1S0","5s 2S1/2",0.196,0.0025,"L8672c99"
59,"Pr XIII",12,47,"Praseodymium","Ag","Kr4d105s","5s","2S1/2","4d10 1S0",0.21702,0.00012,"L5532"
59,"Pr XIV",13,46,"Praseodymium","Pd","Kr4d10","4d10","1S0","4d9 2D5/2",0.35,0.003,"L8672c99"
59,"Pr XV",14,45,"Praseodymium","Rh","Kr4d9","4d9","2D5/2","4d8 3F4",0.378,0.003,"L8672c99"
59,"Pr XVI",15,44,"Praseodymium","Ru","Kr4d8","4d8","3F4","4d7 4F9/2",0.412,0.003,"L8672c99"
59,"Pr XVII",16,43,"Praseodymium","Tc","Kr4d7","4d7","4F9/2","4d6 5D4",0.445,0.003,"L8672c99"
59,"Pr XVIII",17,42,"Praseodymium","Mo","Kr4d6","4d6","5D4","4d5 6S5/2",0.478,0.003,"L8672c99"
59,"Pr XIX",18,41,"Praseodymium","Nb","Kr4d5","4d5","6S5/2","4d4 5D0",0.516,0.003,"L8672c99"
59,"Pr XX",19,40,"Praseodymium","Zr","Kr4d4","4d4","5D0","4d3 4F3/2",0.554,0.004,"L8672c99"
59,"Pr XXI",20,39,"Praseodymium","Y","Kr4d3","4d3","4F3/2","4d2 3F2",0.59,0.004,"L8672c99"
59,"Pr XXII",21,38,"Praseodymium","Sr","Kr4d2","4d2","3F2","4d 2D3/2",0.627,0.004,"L8672c99"
59,"Pr XXIII",22,37,"Praseodymium","Rb","Kr4d","4d","2D3/2","4p6 1S0",0.663,0.004,"L8672c99"
59,"Pr XXIV",23,36,"Praseodymium","Kr","Ar3d104s24p6","4p6","1S0","4p5 2P°3/2",0.803,0.004,"L8672c99"