"Z","Species","CS","Occ","Element","Iso_elec","Ground_Shells","Ground_Config","Ground_Level","Ionized_Level","IE","IE_uncertainty","References"
78,"Pt XXVIII",27,51,"Platinum","Sb","Kr4d104f5","4f5","6H°5/2","4f4 5I4",0.93,0.05,"L582"
78,"Pt XXIX",28,50,"Platinum","Sn","Kr4d104f4","4f4","5I4","4f3 4I°9/2",0.98,0.05,"L582"
78,"Pt XXX",29,49,"Platinum","In","Kr4d104f3","4f3","4I°9/2","4f2 3H4",1.04,0.05,"L582"
78,"Pt XXXI",30,48,"Platinum","Cd","Kr4d104f2","4f2","3H4","4f 2F°5/2",1.09,0.05,"L582"
78,"Pt XXXII",31,47,"Platinum","Ag","Kr4d104f","4f","2F°5/2","4d10 1S0",1.14,0.06,"L582"
78,"Pt XXXIII",32,46,"Platinum","Pd","Kr4d10","4d10","1S0","4d9 2D5/2",1.402,0.004,"L8672c99"
78,"Pt XXXIV",33,45,"Platinum","Rh","Kr4d9","4d9","2D5/2","4d8 3F4",1.454,0.005,"L8672c99"
78,"Pt XXXV",34,44,"Platinum","Ru","Kr4d8","4d8","3F4","4d7 4F9/2",1.509,0.005,"L8672c99"
78,"Pt XXXVI",35,43,"Platinum","Tc","Kr4d7","4d7","4F9/2","4d6 5D4",1.567,0.005,"L8672c99"
78,"Pt XXXVII",36,42,"Platinum","Mo","Kr4d6","4d6","5D4","4d5 5/2",1.624,0.005,"L8672c99"
78,"Pt XXXVIII",37,41,"Platinum","Nb","Kr4d5","4d5","5/2","4d4 5D0",1.68,0.004,"L8672c99"
78,"Pt XXXIX",38,40,"Platinum","Zr","Kr4d4","4d4","5D0","4d3 4F3/2",1.763,0.004,"L8672c99"
78,"Pt XL",39,39,"Platinum","Y","Kr4d3","4d3","4F3/2","4d2 3F2",1.821,0.004,"L8672c99"
78,"Pt XLI",40,38,"Platinum","Sr","Kr4d2","4d2","3F2","4d 2D3/2",1.883,0.004,"L8672c99"
78,"Pt XLII",41,37,"Platinum","Rb","Kr4d","4d","2D3/2","4p6 1S0",1.941,0.004,"L8672c99"
78,"Pt XLIII",42,36,"Platinum","Kr","Ar3d104s24p6","4p6","1S0","4p5 2P°3/2",2.171,0.004,"L8672c99"
78,"Pt XLIV",43,35,"Platinum","Br","Ar3d104s24p5","4p5","2P°3/2","4p4 3P2",2.228,0.004,"L8672c99"
78,"Pt XLV",44,34,"Platinum","Se","Ar3d104s24p4","4p4","3P2","4p3°3/2",2.291,0.004,"L8672c99"
78,"Pt XLVI",45,33,"Platinum","As","Ar3d104s24p3","4p3","°3/2","4p2 3P0",2.35,0.004,"L8672c99"
78,"Pt XLVII",46,32,"Platinum","Ge","Ar3d104s24p2","4p2","3P0","4p 2P°1/2",2.536,0.004,"L8672c99"
78,"Pt XLVIII",47,31,"Platinum","Ga","Ar3d104s24p","4p","2P°1/2","4s2 1S0",2.603,0.004,"L8672c99"
78,"Pt XLIX",48,30,"Platinum","Zn","Ar3d104s2","4s2","1S0","4s 2S1/2",2.762,0.004,"L8672c99"
78,"Pt L",49,29,"Platinum","Cu","Ar3d104s","4s","2S1/2","3d10 1S0",2.8278,0.0014,"L10278"
78,"Pt LI",50,28,"Platinum","Ni","Ar3d10","3d10","1S0","3d9 2D5/2",4.715,0.004,"L10191"
78,"Pt LII",51,27,"Platinum","Co","Ar3d9","3d9","2D5/2","3d8 3F4",4.839,0.004,"L8672c99"
78,"Pt LIII",52,26,"Platinum","Fe","Ar3d8","3d8","3F4","3d7 4F9/2",4.98,0.004,"L8672c99"
78,"Pt LIV",53,25,"Platinum","Mn","Ar3d7","3d7","4F9/2","3d6 4",5.128,0.005,"L8672c99"
78,"Pt LV",54,24,"Platinum","Cr","Ar3d6","3d6","4","3d5 5/2",5.27,0.005,"L8672c99"
78,"Pt LVI",55,23,"Platinum","V","Ar3d5","3d5","5/2","3d4 5D0",5.41,0.005,"L8672c99"
78,"Pt LVII",56,22,"Platinum","Ti","Ar3d4","3d4","5D0","3d3 4F3/2",5.654,0.005,"L8672c99"
78,"Pt LVIII",57,21,"Platinum","Sc","Ar3d3","3d3","4F3/2","3d2 3F2",5.8,0.006,"L8672c99"
78,"Pt LIX",58,20,"Platinum","Ca","Ar3d2","3d2","3F2","3d 2D3/2",5.959,0.006,"L8672c99"
78,"Pt LX",59,19,"Platinum","K","Ar3d","3d","2D3/2","3p6 1S0",6.106,0.007,"L8672c99"
78,"Pt LXI",60,18,"Platinum","Ar","Ne3s23p6","3p6","1S0","3p5 2P°3/2",6.517,0.01,"L8672c99"
78,"Pt LXII",61,17,"Platinum","Cl","Ne3s23p5","3p5","2P°3/2","3p4 3P2",6.646,0.012,"L8672c99"
78,"Pt LXIII",62,16,"Platinum","S","Ne3s23p4","3p4","3P2","3p3 2P°3/2",6.787,0.015,"L8672c99"
78,"Pt LXIV",63,15,"Platinum","P","Ne3s23p3","3p3","2P°3/2","3p2 3P0",6.918,0.019,"L8672c99"
78,"Pt LXV",64,14,"Platinum","Si","Ne3s23p2","3p2","3P0","3p 2P°1/2",7.512,0.024,"L8672c99"
78,"Pt LXVI",65,13,"Platinum","Al","Ne3s23p","3p","2P°1/2","3s2 1S0",7.66,0.03,"L8672c99"
78,"Pt LXVII",66,12,"Platinum","Mg","Ne3s2","3s2","1S0","3s 2S1/2",7.96,0.04,"L8672c99"
78,"Pt LXVIII",67,11,"Platinum","Na","Ne3s","3s","2S1/2","2p6 1S0",8.1,0.04,"L8672c99"
78,"Pt LXIX",68,10,"Platinum","Ne","1s22s22p6","2p6","1S0","2p5 2P°3/2",17.54,0.05,"L8672c99"
78,"Pt LXX",69,9,"Platinum","F","1s22s22p5","2p5","2P°3/2","2p4 3P2",17.89,0.05,"L8672c99"
78,"Pt LXXI",70,8,"Platinum","O","1s22s22p4","2p4","3P2","2p21/22p3/2 0,3/2°3/2",18.28,0.06,"L8672c99"
78,"Pt LXXII",71,7,"Platinum","N","1s22s22p3","2p21/22p3/2","0,3/2°3/2","2p2 3P0",18.63,0.06,"L8672c99"
78,"Pt LXXIII",72,6,"Platinum","C","1s22s22p2","2p2","3P0","2p 2P°1/2",20.84,0.07,"L8672c99"
78,"Pt LXXIV",73,5,"Platinum","B","1s22s22p","2p","2P°1/2","2s2 1S0",21.28,0.09,"L8672c99"
78,"Pt LXXV",74,4,"Platinum","Be","1s22s2","2s2","1S0","2s 2S1/2",21.84,0.09,"L8672c99"
78,"Pt LXXVI",75,3,"Platinum","Li","1s22s","2s","2S1/2","1s2 1S0",22.2057,3e-04,"L16264c99"
78,"Pt LXXVII",76,2,"Platinum","He","1s2","1s2","1S0","1s 2S1/2",88.95518,0.00015,"L12128"
78,"Pt LXXVIII",77,1,"Platinum","H","1s","1s","2S1/2",NA,90.6597,7e-04,"L7188"
79,"Au I",0,79,"Gold","Au","Xe4f145d106s","5d106s","2S1/2","5d10 1S0",0.009225554,4e-09,"L12088"
79,"Au II",1,78,"Gold","Pt","Xe4f145d10","5d10","1S0","5d9 2D5/2",0.020203,2.5e-05,"L11702"
79,"Au III",2,77,"Gold","Ir","Xe4f145d9","5d9","2D5/2","5d8 3F4",0.03,0.0016,"L8672c99"
79,"Au IV",3,76,"Gold","Os","Xe4f145d8","5d8","3F4","5d7 4F9/2",0.045,0.0017,"L8672c99"
79,"Au V",4,75,"Gold","Re","Xe4f145d7","5d7","4F9/2","5d6 5D4",0.06,0.0019,"L8672c99"
79,"Au VI",5,74,"Gold","W","Xe4f145d6","5d6","5D4","5d5 6S5/2",0.074,0.002,"L8672c99"
79,"Au VII",6,73,"Gold","Ta","Xe4f145d5","5d5","6S5/2","5d4 5D0",0.094,0.002,"L8672c99"
79,"Au VIII",7,72,"Gold","Hf","Xe4f145d4","5d4","5D0","5d3 4F3/2",0.112,0.0021,"L8672c99"
79,"Au IX",8,71,"Gold","Lu","Xe4f145d3","5d3","4F3/2","5d2 3F2",0.1301,0.0022,"L8672c99"
79,"Au X",9,70,"Gold","Yb","Xe4f145d2","5d2","3F2","5d 2D3/2",0.149,0.0022,"L8672c99"
79,"Au XI",10,69,"Gold","Tm","Xe4f145d","5d","2D3/2","4f14 1S0",0.1682,0.0014,"L3654"
79,"Au XII",11,68,"Gold","Er","Xe4f14","4f14","1S0","4f145p5 2P°3/2",0.248,0.001,"L3654"
79,"Au XIII",12,67,"Gold","Ho","Cd4f145p5","4f145p5","2P°3/2","4f145p4 3P2",0.275,0.014,"L582"
79,"Au XIV",13,66,"Gold","Dy","Cd4f145p4","4f145p4","3P2","4f145p3 2P°3/2",0.299,0.015,"L582"
79,"Au XV",14,65,"Gold","Tb","Cd4f145p3","4f145p3","2P°3/2","4f145p2 3P0",0.324,0.016,"L582"
79,"Au XVI",15,64,"Gold","Gd","Cd4f145p2","4f145p2","3P0","4f145p 2P°1/2",0.365,0.019,"L582"
79,"Au XVII",16,63,"Gold","Eu","Cd4f145p","4f145p","2P°1/2","4f14 1S0",0.392,0.02,"L582"
79,"Au XVIII",17,62,"Gold","Sm","Cd4f14","4f14","1S0","4f135s2 2F°7/2",0.433,0.021,"L582"
79,"Au XIX",18,61,"Gold","Pm","Cd4f13","4f135s2","2F°7/2","4f125s2 3H6",0.487,0.025,"L582"
79,"Au XX",19,60,"Gold","Nd","Cd4f12","4f125s2","3H6","4f125s",0.52,0.03,"L582"
79,"Au XXI",20,59,"Gold","Pr","Kr4d104f125s","4f125s",NA,"4f12",0.55,0.03,"L582"
79,"Au XXII",21,58,"Gold","Ce","Kr4d104f12","4f12",NA,"4f11 4I°15/2",0.6,0.03,"L582"
79,"Au XXIII",22,57,"Gold","La","Kr4d104f11","4f11","4I°15/2","4f10 5I8",0.65,0.04,"L582"
79,"Au XXIV",23,56,"Gold","Ba","Kr4d104f10","4f10","5I8","4f9 6H°15/2",0.71,0.04,"L582"
79,"Au XXV",24,55,"Gold","Cs","Kr4d104f9","4f9","6H°15/2","4f8 7F6",0.76,0.04,"L582"
79,"Au XXVI",25,54,"Gold","Xe","Kr4d104f8","4f8","7F6","4f7 8S°7/2",0.82,0.04,"L582"
79,"Au XXVII",26,53,"Gold","I","Kr4d104f7","4f7","8S°7/2","4f6 7F0",0.87,0.04,"L582"
79,"Au XXVIII",27,52,"Gold","Te","Kr4d104f6","4f6","7F0","4f5 6H°5/2",0.93,0.05,"L582"
79,"Au XXIX",28,51,"Gold","Sb","Kr4d104f5","4f5","6H°5/2","4f4 5I4",0.99,0.05,"L582"
79,"Au XXX",29,50,"Gold","Sn","Kr4d104f4","4f4","5I4","4f3 4I°9/2",1.04,0.05,"L582"
79,"Au XXXI",30,49,"Gold","In","Kr4d104f3","4f3","4I°9/2","4f2 3H4",1.1,0.05,"L582"
79,"Au XXXII",31,48,"Gold","Cd","Kr4d104f2","4f2","3H4","4f 2F°5/2",1.15,0.06,"L582"
79,"Au XXXIII",32,47,"Gold","Ag","Kr4d104f","4f","2F°5/2","4d10 1S0",1.21,0.06,"L582"
79,"Au XXXIV",33,46,"Gold","Pd","Kr4d10","4d10","1S0","4d9 2D5/2",1.475,0.005,"L8672c99"
79,"Au XXXV",34,45,"Gold","Rh","Kr4d9","4d9","2D5/2","4d8 3F4",1.527,0.005,"L8672c99"
79,"Au XXXVI",35,44,"Gold","Ru","Kr4d8","4d8","3F4","4d7 4F9/2",1.584,0.005,"L8672c99"
79,"Au XXXVII",36,43,"Gold","Tc","Kr4d7","4d7","4F9/2","4d6 5D4",1.644,0.005,"L8672c99"
79,"Au XXXVIII",37,42,"Gold","Mo","Kr4d6","4d6","5D4","4d5 5/2",1.702,0.004,"L8672c99"
79,"Au XXXIX",38,41,"Gold","Nb","Kr4d5","4d5","5/2","4d4 5D0",1.758,0.004,"L8672c99"
79,"Au XL",39,40,"Gold","Zr","Kr4d4","4d4","5D0","4d3 4F3/2",1.845,0.004,"L8672c99"
79,"Au XLI",40,39,"Gold","Y","Kr4d3","4d3","4F3/2","4d2 3F2",1.904,0.004,"L8672c99"
79,"Au XLII",41,38,"Gold","Sr","Kr4d2","4d2","3F2","4d 2D3/2",1.967,0.004,"L8672c99"
79,"Au XLIII",42,37,"Gold","Rb","Kr4d","4d","2D3/2","4p6 1S0",2.026,0.004,"L8672c99"
79,"Au XLIV",43,36,"Gold","Kr","Ar3d104s24p6","4p6","1S0","4p5 2P°3/2",2.261,0.004,"L8672c99"
79,"Au XLV",44,35,"Gold","Br","Ar3d104s24p5","4p5","2P°3/2","4p4 3P2",2.32,0.004,"L8672c99"
79,"Au XLVI",45,34,"Gold","Se","Ar3d104s24p4","4p4","3P2","4p3°3/2",2.383,0.004,"L8672c99"
79,"Au XLVII",46,33,"Gold","As","Ar3d104s24p3","4p3","°3/2","4p2 3P0",2.443,0.004,"L8672c99"
79,"Au XLVIII",47,32,"Gold","Ge","Ar3d104s24p2","4p2","3P0","4p 2P°1/2",2.64,0.004,"L8672c99"
79,"Au XLIX",48,31,"Gold","Ga","Ar3d104s24p","4p","2P°1/2","4s2 1S0",2.708,0.004,"L8672c99"
79,"Au L",49,30,"Gold","Zn","Ar3d104s2","4s2","1S0","4s 2S1/2",2.87,0.004,"L8672c99"
79,"Au LI",50,29,"Gold","Cu","Ar3d104s","4s","2S1/2","3d10 1S0",2.941,0.001,"L10191"
79,"Au LII",51,28,"Gold","Ni","Ar3d10","3d10","1S0","3d9 2D5/2",4.888,0.004,"L10191"
79,"Au LIII",52,27,"Gold","Co","Ar3d9","3d9","2D5/2","3d8 3F4",5.013,0.004,"L8672c99"
79,"Au LIV",53,26,"Gold","Fe","Ar3d8","3d8","3F4","3d7 4F9/2",5.156,0.005,"L8672c99"
79,"Au LV",54,25,"Gold","Mn","Ar3d7","3d7","4F9/2","3d6 4",5.307,0.005,"L8672c99"
79,"Au LVI",55,24,"Gold","Cr","Ar3d6","3d6","4","3d5 5/2",5.452,0.005,"L8672c99"
79,"Au LVII",56,23,"Gold","V","Ar3d5","3d5","5/2","3d4 5D0",5.594,0.005,"L8672c99"
79,"Au LVIII",57,22,"Gold","Ti","Ar3d4","3d4","5D0","3d3 4F3/2",5.846,0.006,"L8672c99"
79,"Au LIX",58,21,"Gold","Sc","Ar3d3","3d3","4F3/2","3d2 3F2",5.994,0.006,"L8672c99"
79,"Au LX",59,20,"Gold","Ca","Ar3d2","3d2","3F2","3d 2D3/2",6.156,0.007,"L8672c99"
79,"Au LXI",60,19,"Gold","K","Ar3d","3d","2D3/2","3p6 1S0",6.305,0.01,"L8672c99"
79,"Au LXII",61,18,"Gold","Ar","Ne3s23p6","3p6","1S0","3p5 2P°3/2",6.724,0.012,"L8672c99"
79,"Au LXIII",62,17,"Gold","Cl","Ne3s23p5","3p5","2P°3/2","3p4 3P2",6.854,0.015,"L8672c99"
79,"Au LXIV",63,16,"Gold","S","Ne3s23p4","3p4","3P2","3p3 2P°3/2",6.997,0.019,"L8672c99"
79,"Au LXV",64,15,"Gold","P","Ne3s23p3","3p3","2P°3/2","3p2 3P0",7.13,0.024,"L8672c99"
79,"Au LXVI",65,14,"Gold","Si","Ne3s23p2","3p2","3P0","3p 2P°1/2",7.76,0.03,"L8672c99"
79,"Au LXVII",66,13,"Gold","Al","Ne3s23p","3p","2P°1/2","3s2 1S0",7.91,0.04,"L8672c99"
79,"Au LXVIII",67,12,"Gold","Mg","Ne3s2","3s2","1S0","3s 2S1/2",8.21,0.04,"L8672c99"
79,"Au LXIX",68,11,"Gold","Na","Ne3s","3s","2S1/2","2p6 1S0",8.36,0.05,"L8672c99"
79,"Au LXX",69,10,"Gold","Ne","1s22s22p6","2p6","1S0","2p5 2P°3/2",18.04,0.05,"L8672c99"
79,"Au LXXI",70,9,"Gold","F","1s22s22p5","2p5","2P°3/2","2p4 3P2",18.4,0.06,"L8672c99"
79,"Au LXXII",71,8,"Gold","O","1s22s22p4","2p4","3P2","2p21/22p3/2 0,3/2°3/2",18.79,0.06,"L8672c99"
79,"Au LXXIII",72,7,"Gold","N","1s22s22p3","2p21/22p3/2","0,3/2°3/2","2p2 3P0",19.15,0.07,"L8672c99"
79,"Au LXXIV",73,6,"Gold","C","1s22s22p2","2p2","3P0","2p 2P°1/2",21.47,0.09,"L8672c99"
79,"Au LXXV",74,5,"Gold","B","1s22s22p","2p","2P°1/2","2s2 1S0",21.92,0.09,"L8672c99"
79,"Au LXXVI",75,4,"Gold","Be","1s22s2","2s2","1S0","2s 2S1/2",22.5,0.1,"L8672c99"
79,"Au LXXVII",76,3,"Gold","Li","1s22s","2s","2S1/2","1s2 1S0",22.8681,3e-04,"L16264c99"
79,"Au LXXVIII",77,2,"Gold","He","1s2","1s2","1S0","1s 2S1/2",91.51582,0.00017,"L12128"
79,"Au LXXIX",78,1,"Gold","H","1s","1s","2S1/2",NA,93.2543,4e-04,"L7188"
80,"Hg I",0,80,"Mercury","Hg","Xe4f145d106s2","5d106s2","1S0","6s 2S1/2",0.010437504,6e-09,"L11931,L11984"
80,"Hg II",1,79,"Mercury","Au","Xe4f145d106s","5d106s","2S1/2","5d10 1S0",0.01875688,4e-08,"L11760"
80,"Hg III",2,78,"Mercury","Pt","Xe4f145d10","5d10","1S0","5d9 2D5/2",0.03449,5e-05,"L20993"
80,"Hg IV",3,77,"Mercury","Ir","Xe4f145d9","5d9","2D5/2","5d8 3F4",0.04855,0.00015,"L16379"
80,"Hg V",4,76,"Mercury","Os","Xe4f145d8","5d8","3F4","5d7 4F9/2",0.0612,2e-04,"L289"
80,"Hg VI",5,75,"Mercury","Re","Xe4f145d7","5d7","4F9/2","5d6 5D4",0.0766,5e-04,"L289"
80,"Hg VII",6,74,"Mercury","W","Xe4f145d6","5d6","5D4","5d5 6S5/2",0.093,0.002,"L289"
80,"Hg VIII",7,73,"Mercury","Ta","Xe4f145d5","5d5","6S5/2","5d4 5D0",0.1139,0.0021,"L8672c99"
80,"Hg IX",8,72,"Mercury","Hf","Xe4f145d4","5d4","5D0","5d3 4F3/2",0.134,0.0022,"L8672c99"
80,"Hg X",9,71,"Mercury","Lu","Xe4f145d3","5d3","4F3/2","5d2 3F2",0.153,0.0022,"L8672c99"
80,"Hg XI",10,70,"Mercury","Yb","Xe4f145d2","5d2","3F2","5d 2D3/2",0.173,0.0024,"L8672c99"
80,"Hg XII",11,69,"Mercury","Tm","Xe4f145d","5d","2D3/2","4f14 1S0",0.1927,0.0017,"L3654"
80,"Hg XIII",12,68,"Mercury","Er","Xe4f14","4f14","1S0","4f145p5 2P°3/2",0.2769,0.0011,"L3654"
80,"Hg XIV",13,67,"Mercury","Ho","Cd4f145p5","4f145p5","2P°3/2","4f145p4 3P2",0.307,0.015,"L582"
80,"Hg XV",14,66,"Mercury","Dy","Cd4f145p4","4f145p4","3P2","4f145p3 2P°3/2",0.332,0.016,"L582"
80,"Hg XVI",15,65,"Mercury","Tb","Cd4f145p3","4f145p3","2P°3/2","4f145p2 3P0",0.357,0.017,"L582"
80,"Hg XVII",16,64,"Mercury","Gd","Cd4f145p2","4f145p2","3P0","4f145p 2P°1/2",0.402,0.02,"L582"
80,"Hg XVIII",17,63,"Mercury","Eu","Cd4f145p","4f145p","2P°1/2","4f14 1S0",0.429,0.021,"L582"
80,"Hg XIX",18,62,"Mercury","Sm","Cd4f14","4f14","1S0","4f135s2 2F°7/2",0.477,0.024,"L582"
80,"Hg XX",19,61,"Mercury","Pm","Cd4f13","4f135s2","2F°7/2","4f135s°",0.53,0.03,"L582"
80,"Hg XXI",20,60,"Mercury","Nd","Kr4d104f135s","4f135s","°","4f13 2F°7/2",0.56,0.03,"L582"
80,"Hg XXII",21,59,"Mercury","Pr","Kr4d104f13","4f13","2F°7/2","4f12",0.59,0.03,"L582"
80,"Hg XXIII",22,58,"Mercury","Ce","Kr4d104f12","4f12",NA,"4f11 4I°15/2",0.65,0.03,"L582"
80,"Hg XXIV",23,57,"Mercury","La","Kr4d104f11","4f11","4I°15/2","4f10 5I8",0.71,0.04,"L582"
80,"Hg XXV",24,56,"Mercury","Ba","Kr4d104f10","4f10","5I8","4f9 6H°15/2",0.76,0.04,"L582"
80,"Hg XXVI",25,55,"Mercury","Cs","Kr4d104f9","4f9","6H°15/2","4f8 7F6",0.82,0.04,"L582"
80,"Hg XXVII",26,54,"Mercury","Xe","Kr4d104f8","4f8","7F6","4f7 8S°7/2",0.88,0.04,"L582"
80,"Hg XXVIII",27,53,"Mercury","I","Kr4d104f7","4f7","8S°7/2","4f6 7F0",0.93,0.05,"L582"
80,"Hg XXIX",28,52,"Mercury","Te","Kr4d104f6","4f6","7F0","4f5 6H°5/2",0.99,0.05,"L582"
80,"Hg XXX",29,51,"Mercury","Sb","Kr4d104f5","4f5","6H°5/2","4f4 5I4",1.05,0.05,"L582"
80,"Hg XXXI",30,50,"Mercury","Sn","Kr4d104f4","4f4","5I4","4f3 4I°9/2",1.11,0.06,"L582"
80,"Hg XXXII",31,49,"Mercury","In","Kr4d104f3","4f3","4I°9/2","4f2 3H4",1.16,0.06,"L582"
80,"Hg XXXIII",32,48,"Mercury","Cd","Kr4d104f2","4f2","3H4","4f 2F°5/2",1.22,0.06,"L582"
80,"Hg XXXIV",33,47,"Mercury","Ag","Kr4d104f","4f","2F°5/2","4d10 1S0",1.28,0.06,"L582"
80,"Hg XXXV",34,46,"Mercury","Pd","Kr4d10","4d10","1S0","4d9 2D5/2",1.549,0.005,"L8672c99"
80,"Hg XXXVI",35,45,"Mercury","Rh","Kr4d9","4d9","2D5/2","4d8 3F4",1.603,0.005,"L8672c99"
80,"Hg XXXVII",36,44,"Mercury","Ru","Kr4d8","4d8","3F4","4d7 4F9/2",1.661,0.005,"L8672c99"
80,"Hg XXXVIII",37,43,"Mercury","Tc","Kr4d7","4d7","4F9/2","4d6 5D4",1.723,0.004,"L8672c99"
80,"Hg XXXIX",38,42,"Mercury","Mo","Kr4d6","4d6","5D4","4d5 5/2",1.78,0.004,"L8672c99"
80,"Hg XL",39,41,"Mercury","Nb","Kr4d5","4d5","5/2","4d4 5D0",1.839,0.004,"L8672c99"
80,"Hg XLI",40,40,"Mercury","Zr","Kr4d4","4d4","5D0","4d3 4F3/2",1.928,0.004,"L8672c99"
80,"Hg XLII",41,39,"Mercury","Y","Kr4d3","4d3","4F3/2","4d2 3F2",1.989,0.004,"L8672c99"
80,"Hg XLIII",42,38,"Mercury","Sr","Kr4d2","4d2","3F2","4d 2D3/2",2.052,0.004,"L8672c99"
80,"Hg XLIV",43,37,"Mercury","Rb","Kr4d","4d","2D3/2","4p6 1S0",2.113,0.004,"L8672c99"
80,"Hg XLV",44,36,"Mercury","Kr","Ar3d104s24p6","4p6","1S0","4p5 2P°3/2",2.354,0.004,"L8672c99"
80,"Hg XLVI",45,35,"Mercury","Br","Ar3d104s24p5","4p5","2P°3/2","4p4 3P2",2.412,0.004,"L8672c99"
80,"Hg XLVII",46,34,"Mercury","Se","Ar3d104s24p4","4p4","3P2","4p3°3/2",2.478,0.004,"L8672c99"
80,"Hg XLVIII",47,33,"Mercury","As","Ar3d104s24p3","4p3","°3/2","4p2 3P0",2.539,0.004,"L8672c99"
80,"Hg XLIX",48,32,"Mercury","Ge","Ar3d104s24p2","4p2","3P0","4p 2P°1/2",2.745,0.004,"L8672c99"
80,"Hg L",49,31,"Mercury","Ga","Ar3d104s24p","4p","2P°1/2","4s2 1S0",2.815,0.004,"L8672c99"
80,"Hg LI",50,30,"Mercury","Zn","Ar3d104s2","4s2","1S0","4s 2S1/2",2.981,0.004,"L8672c99"
80,"Hg LII",51,29,"Mercury","Cu","Ar3d104s","4s","2S1/2","3d10 1S0",3.0499,0.0015,"L10278"
80,"Hg LIII",52,28,"Mercury","Ni","Ar3d10","3d10","1S0","3d9 2D5/2",5.055,0.004,"L8672c99"
80,"Hg LIV",53,27,"Mercury","Co","Ar3d9","3d9","2D5/2","3d8 3F4",5.191,0.005,"L8672c99"
80,"Hg LV",54,26,"Mercury","Fe","Ar3d8","3d8","3F4","3d7 4F9/2",5.335,0.005,"L8672c99"
80,"Hg LVI",55,25,"Mercury","Mn","Ar3d7","3d7","4F9/2","3d6 4",5.49,0.005,"L8672c99"
80,"Hg LVII",56,24,"Mercury","Cr","Ar3d6","3d6","4","3d5 5/2",5.636,0.005,"L8672c99"
80,"Hg LVIII",57,23,"Mercury","V","Ar3d5","3d5","5/2","3d4 5D0",5.78,0.006,"L8672c99"
80,"Hg LIX",58,22,"Mercury","Ti","Ar3d4","3d4","5D0","3d3 4F3/2",6.041,0.006,"L8672c99"
80,"Hg LX",59,21,"Mercury","Sc","Ar3d3","3d3","4F3/2","3d2 3F2",6.192,0.007,"L8672c99"
80,"Hg LXI",60,20,"Mercury","Ca","Ar3d2","3d2","3F2","3d 2D3/2",6.356,0.01,"L8672c99"
80,"Hg LXII",61,19,"Mercury","K","Ar3d","3d","2D3/2","3p6 1S0",6.508,0.012,"L8672c99"
80,"Hg LXIII",62,18,"Mercury","Ar","Ne3s23p6","3p6","1S0","3p5 2P°3/2",6.933,0.015,"L8672c99"
80,"Hg LXIV",63,17,"Mercury","Cl","Ne3s23p5","3p5","2P°3/2","3p4 3P2",7.066,0.019,"L8672c99"
80,"Hg LXV",64,16,"Mercury","S","Ne3s23p4","3p4","3P2","3p3 2P°3/2",7.211,0.024,"L8672c99"
80,"Hg LXVI",65,15,"Mercury","P","Ne3s23p3","3p3","2P°3/2","3p2 3P0",7.35,0.03,"L8672c99"
80,"Hg LXVII",66,14,"Mercury","Si","Ne3s23p2","3p2","3P0","3p 2P°1/2",8.01,0.04,"L8672c99"
80,"Hg LXVIII",67,13,"Mercury","Al","Ne3s23p","3p","2P°1/2","3s2 1S0",8.16,0.04,"L8672c99"
80,"Hg LXIX",68,12,"Mercury","Mg","Ne3s2","3s2","1S0","3s 2S1/2",8.47,0.05,"L8672c99"
80,"Hg LXX",69,11,"Mercury","Na","Ne3s","3s","2S1/2","2p6 1S0",8.62,0.05,"L8672c99"
80,"Hg LXXI",70,10,"Mercury","Ne","1s22s22p6","2p6","1S0","2p5 2P°3/2",18.55,0.06,"L8672c99"
80,"Hg LXXII",71,9,"Mercury","F","1s22s22p5","2p5","2P°3/2","2p4 3P2",18.91,0.06,"L8672c99"
80,"Hg LXXIII",72,8,"Mercury","O","1s22s22p4","2p4","3P2","2p21/22p3/2 0,3/2°3/2",19.31,0.07,"L8672c99"
80,"Hg LXXIV",73,7,"Mercury","N","1s22s22p3","2p21/22p3/2","0,3/2°3/2","2p2 3P0",19.68,0.09,"L8672c99"
80,"Hg LXXV",74,6,"Mercury","C","1s22s22p2","2p2","3P0","2p 2P°1/2",22.12,0.09,"L8672c99"
80,"Hg LXXVI",75,5,"Mercury","B","1s22s22p","2p","2P°1/2","2s2 1S0",22.58,0.1,"L8672c99"
80,"Hg LXXVII",76,4,"Mercury","Be","1s22s2","2s2","1S0","2s 2S1/2",23.17,0.11,"L8672c99"
80,"Hg LXXVIII",77,3,"Mercury","Li","1s22s","2s","2S1/2","1s2 1S0",23.5441,3e-04,"L16264c99"
80,"Hg LXXIX",78,2,"Mercury","He","1s2","1s2","1S0","1s 2S1/2",94.1247,0.00019,"L12128"
80,"Hg LXXX",79,1,"Mercury","H","1s","1s","2S1/2",NA,95.8977,9e-04,"L7188"
81,"Tl I",0,81,"Thallium","Tl","Hg6p","6s26p","2P°1/2","6s2 1S0",0.0061082873,1.2e-09,"L16353"
81,"Tl II",1,80,"Thallium","Hg","Xe4f145d106s2","5d106s2","1S0","6s 2S1/2",0.0204283,6e-07,"L3272"
81,"Tl III",2,79,"Thallium","Au","Xe4f145d106s","5d106s","2S1/2","5d10 1S0",0.029852,6e-07,"L3138"
81,"Tl IV",3,78,"Thallium","Pt","Xe4f145d10","5d10","1S0","5d9 2D5/2",0.05114,4e-05,"L1202"
81,"Tl V",4,77,"Thallium","Ir","Xe4f145d9","5d9","2D5/2","5d8 3F4",0.0626,4e-04,"L9528"
81,"Tl VI",5,76,"Thallium","Os","Xe4f145d8","5d8","3F4","5d7 4F9/2",0.08,0.002,"L8672c99"
81,"Tl VII",6,75,"Thallium","Re","Xe4f145d7","5d7","4F9/2","5d6 5D4",0.0979,0.002,"L8672c99"
81,"Tl VIII",7,74,"Thallium","W","Xe4f145d6","5d6","5D4","5d5 6S5/2",0.116,0.0021,"L8672c99"
81,"Tl IX",8,73,"Thallium","Ta","Xe4f145d5","5d5","6S5/2","5d4 5D0",0.135,0.0022,"L8672c99"
81,"Tl X",9,72,"Thallium","Hf","Xe4f145d4","5d4","5D0","5d3 4F3/2",0.158,0.0022,"L8672c99"
81,"Tl XI",10,71,"Thallium","Lu","Xe4f145d3","5d3","4F3/2","5d2 3F2",0.177,0.0024,"L8672c99"