"Z","Species","CS","Occ","Element","Iso_elec","Ground_Shells","Ground_Config","Ground_Level","Ionized_Level","IE","IE_uncertainty","References"
93,"Np LXVI",65,28,"Neptunium","Ni","Ar3d10","3d10","1S0","3d9 2D5/2",7.61,0.03,"L8672c99"
93,"Np LXVII",66,27,"Neptunium","Co","Ar3d9","3d9","2D5/2","3d8 3F4",7.77,0.04,"L8672c99"
93,"Np LXVIII",67,26,"Neptunium","Fe","Ar3d8","3d8","3F4","3d7 4F9/2",7.95,0.04,"L8672c99"
93,"Np LXIX",68,25,"Neptunium","Mn","Ar3d7","3d7","4F9/2","3d6 4",8.13,0.05,"L8672c99"
93,"Np LXX",69,24,"Neptunium","Cr","Ar3d6","3d6","4","3d5 5/2",8.31,0.05,"L8672c99"
93,"Np LXXI",70,23,"Neptunium","V","Ar3d5","3d5","5/2","3d4 5D0",8.48,0.06,"L8672c99"
93,"Np LXXII",71,22,"Neptunium","Ti","Ar3d4","3d4","5D0","3d3 4F3/2",8.89,0.06,"L8672c99"
93,"Np LXXIII",72,21,"Neptunium","Sc","Ar3d3","3d3","4F3/2","3d2 3F2",9.07,0.07,"L8672c99"
93,"Np LXXIV",73,20,"Neptunium","Ca","Ar3d2","3d2","3F2","3d 2D3/2",9.27,0.09,"L8672c99"
93,"Np LXXV",74,19,"Neptunium","K","Ar3d","3d","2D3/2","3p6 1S0",9.45,0.09,"L8672c99"
93,"Np LXXVI",75,18,"Neptunium","Ar","Ne3s23p6","3p6","1S0","3p5 2P°3/2",9.97,0.1,"L8672c99"
93,"Np LXXVII",76,17,"Neptunium","Cl","Ne3s23p5","3p5","2P°3/2","3p4 3P2",10.13,0.11,"L8672c99"
93,"Np LXXVIII",77,16,"Neptunium","S","Ne3s23p4","3p4","3P2","3p3 2P°3/2",10.3,0.12,"L8672c99"
93,"Np LXXIX",78,15,"Neptunium","P","Ne3s23p3","3p3","2P°3/2","3p2 3P0",10.47,0.12,"L8672c99"
93,"Np LXXX",79,14,"Neptunium","Si","Ne3s23p2","3p2","3P0","3p 2P°1/2",11.73,0.14,"L8672c99"
93,"Np LXXXI",80,13,"Neptunium","Al","Ne3s23p","3p","2P°1/2","3s2 1S0",11.93,0.15,"L8672c99"
93,"Np LXXXII",81,12,"Neptunium","Mg","Ne3s2","3s2","1S0","3s 2S1/2",12.32,0.16,"L8672c99"
93,"Np LXXXIII",82,11,"Neptunium","Na","Ne3s","3s","2S1/2","2p6 1S0",12.5,0.17,"L8672c99"
93,"Np LXXXIV",83,10,"Neptunium","Ne","1s22s22p6","2p6","1S0","2p5 2P°3/2",25.87,0.19,"L8672c99"
93,"Np LXXXV",84,9,"Neptunium","F","1s22s22p5","2p5","2P°3/2","2p4 3P2",26.3,0.2,"L8672c99"
93,"Np LXXXVI",85,8,"Neptunium","O","1s22s22p4","2p4","3P2","2p21/22p3/2 0,3/2°3/2",26.77,0.22,"L8672c99"
93,"Np LXXXVII",86,7,"Neptunium","N","1s22s22p3","2p21/22p3/2","0,3/2°3/2","2p2 3P0",27.21,0.24,"L8672c99"
93,"Np LXXXVIII",87,6,"Neptunium","C","1s22s22p2","2p2","3P0","2p 2P°1/2",31.91,0.25,"L8672c99"
93,"Np LXXXIX",88,5,"Neptunium","B","1s22s22p","2p","2P°1/2","2s2 1S0",32.5,0.3,"L8672c99"
93,"Np XC",89,4,"Neptunium","Be","1s22s2","2s2","1S0","2s 2S1/2",33.3,0.3,"L8672c99"
93,"Np XCI",90,3,"Neptunium","Li","1s22s","2s","2S1/2","1s2 1S0",33.7222,7e-04,"L16264c99"
93,"Np XCII",91,2,"Neptunium","He","1s2","1s2","1S0","1s 2S1/2",132.9018,0.0011,"L10054"
93,"Np XCIII",92,1,"Neptunium","H","1s","1s","2S1/2",NA,135.202,0.003,"L7188"
94,"Pu I",0,94,"Plutonium","Pu","Rn5f67s2","5f67s2","7F0","5f67s 8F1/2",0.00602576,2.5e-07,"L15992,L11260"
94,"Pu II",1,93,"Plutonium","Np","Rn5f67s","5f67s","8F1/2","5f6 7F0",0.0115,4e-04,"L13741c99"
94,"Pu III",2,92,"Plutonium","U","Rn5f6","5f6","7F0","5f5 6H°5/2",0.0211,4e-04,"L13741c99"
94,"Pu IV",3,91,"Plutonium","Pa","Rn5f5","5f5","6H°5/2","5f4 5I4",0.035,4e-04,"L13741c99"
94,"Pu V",4,90,"Plutonium","Th","Rn5f4","5f4","5I4","5f36p6 4I°9/2",0.049,0.0019,"L8672c99"
94,"Pu VI",5,89,"Plutonium","Ac","Rn5f3","5f36p6","4I°9/2","5f36p5",0.08,0.004,"L582"
94,"Pu VII",6,88,"Plutonium","Ra","Hg5f36p5","5f36p5",NA,"5f36p4°",0.095,0.005,"L582"
94,"Pu VIII",7,87,"Plutonium","Fr","Hg5f36p4","5f36p4","°","5f36p3",0.109,0.005,"L582"
94,"Pu IX",8,86,"Plutonium","Rn","Hg5f36p3","5f36p3",NA,"5f36p2°",0.124,0.006,"L582"
94,"Pu X",9,85,"Plutonium","At","Hg5f36p2","5f36p2","°","5f26p2",0.139,0.007,"L582"
94,"Pu XI",10,84,"Plutonium","Po","Hg5f26p2","5f26p2",NA,"5f6p2°",0.159,0.008,"L582"
94,"Pu XII",11,83,"Plutonium","Bi","Hg5f6p2","5f6p2","°","6p2 3P0",0.179,0.009,"L582"
94,"Pu XIII",12,82,"Plutonium","Pb","Hg6p2","6p2","3P0","6p 2P°1/2",0.2,0.003,"L8672c99"
94,"Pu XIV",13,81,"Plutonium","Tl","Hg6p","6p","2P°1/2","6s2 1S0",0.219,0.003,"L8672c99"
94,"Pu XV",14,80,"Plutonium","Hg","Xe4f145d106s2","6s2","1S0","6s 2S1/2",0.258,0.003,"L8672c99"
94,"Pu XVI",15,79,"Plutonium","Au","Xe4f145d106s","6s","2S1/2","5d10 1S0",0.278,0.003,"L8672c99"
94,"Pu XVII",16,78,"Plutonium","Pt","Xe4f145d10","5d10","1S0","5d9 2D5/2",0.389,0.003,"L8672c99"
94,"Pu XVIII",17,77,"Plutonium","Ir","Xe4f145d9","5d9","2D5/2","5d8 3F4",0.416,0.003,"L8672c99"
94,"Pu XIX",18,76,"Plutonium","Os","Xe4f145d8","5d8","3F4","5d7 4F9/2",0.444,0.003,"L8672c99"
94,"Pu XX",19,75,"Plutonium","Re","Xe4f145d7","5d7","4F9/2","5d6 5D4",0.474,0.004,"L8672c99"
94,"Pu XXI",20,74,"Plutonium","W","Xe4f145d6","5d6","5D4","5d5 6S5/2",0.503,0.004,"L8672c99"
94,"Pu XXII",21,73,"Plutonium","Ta","Xe4f145d5","5d5","6S5/2","5d4 5D0",0.532,0.004,"L8672c99"
94,"Pu XXIII",22,72,"Plutonium","Hf","Xe4f145d4","5d4","5D0","5d3 4F3/2",0.575,0.004,"L8672c99"
94,"Pu XXIV",23,71,"Plutonium","Lu","Xe4f145d3","5d3","4F3/2","5d2 3F2",0.605,0.004,"L8672c99"
94,"Pu XXV",24,70,"Plutonium","Yb","Xe4f145d2","5d2","3F2","5d 2D3/2",0.637,0.004,"L8672c99"
94,"Pu XXVI",25,69,"Plutonium","Tm","Xe4f145d","5d","2D3/2","4f14 1S0",0.668,0.004,"L8672c99"
94,"Pu XXVII",26,68,"Plutonium","Er","Xe4f14","4f14","1S0","4f145p5 2P°3/2",0.82,0.04,"L582"
94,"Pu XXVIII",27,67,"Plutonium","Ho","Cd4f145p5","4f145p5","2P°3/2","4f145p4 3P2",0.85,0.04,"L582"
94,"Pu XXIX",28,66,"Plutonium","Dy","Cd4f145p4","4f145p4","3P2","4f145p3 2P°3/2",0.89,0.04,"L582"
94,"Pu XXX",29,65,"Plutonium","Tb","Cd4f145p3","4f145p3","2P°3/2","4f145p2 3P0",0.93,0.05,"L582"
94,"Pu XXXI",30,64,"Plutonium","Gd","Cd4f145p2","4f145p2","3P0","4f145p 2P°1/2",1.03,0.05,"L582"
94,"Pu XXXII",31,63,"Plutonium","Eu","Cd4f145p","4f145p","2P°1/2","4f14 1S0",1.07,0.05,"L582"
94,"Pu XXXIII",32,62,"Plutonium","Sm","Cd4f14","4f14","1S0","4f145s 2S1/2",1.18,0.06,"L582"
94,"Pu XXXIV",33,61,"Plutonium","Pm","Kr4d104f145s","4f145s","2S1/2","4f14 1S0",1.22,0.06,"L582"
94,"Pu XXXV",34,60,"Plutonium","Nd","Kr4d104f14","4f14","1S0","4f13 2F°7/2",1.34,0.07,"L582"
94,"Pu XXXVI",35,59,"Plutonium","Pr","Kr4d104f13","4f13","2F°7/2","4f12",1.42,0.07,"L582"
94,"Pu XXXVII",36,58,"Plutonium","Ce","Kr4d104f12","4f12",NA,"4f11 4I°15/2",1.5,0.07,"L582"
94,"Pu XXXVIII",37,57,"Plutonium","La","Kr4d104f11","4f11","4I°15/2","4f10 5I8",1.58,0.07,"L582"
94,"Pu XXXIX",38,56,"Plutonium","Ba","Kr4d104f10","4f10","5I8","4f9 6H°15/2",1.66,0.08,"L582"
94,"Pu XL",39,55,"Plutonium","Cs","Kr4d104f9","4f9","6H°15/2","4f8 7F6",1.74,0.09,"L582"
94,"Pu XLI",40,54,"Plutonium","Xe","Kr4d104f8","4f8","7F6","4f7 8S°7/2",1.82,0.09,"L582"
94,"Pu XLII",41,53,"Plutonium","I","Kr4d104f7","4f7","8S°7/2","4f6 7F0",1.89,0.09,"L582"
94,"Pu XLIII",42,52,"Plutonium","Te","Kr4d104f6","4f6","7F0","4f5 6H°5/2",1.99,0.1,"L582"
94,"Pu XLIV",43,51,"Plutonium","Sb","Kr4d104f5","4f5","6H°5/2","4f4 5I4",2.07,0.1,"L582"
94,"Pu XLV",44,50,"Plutonium","Sn","Kr4d104f4","4f4","5I4","4f3 4I°9/2",2.15,0.11,"L582"
94,"Pu XLVI",45,49,"Plutonium","In","Kr4d104f3","4f3","4I°9/2","4f2 3H4",2.23,0.11,"L582"
94,"Pu XLVII",46,48,"Plutonium","Cd","Kr4d104f2","4f2","3H4","4f 2F°5/2",2.31,0.11,"L582"
94,"Pu XLVIII",47,47,"Plutonium","Ag","Kr4d104f","4f","2F°5/2","4d10 1S0",2.39,0.12,"L582"
94,"Pu XLIX",48,46,"Plutonium","Pd","Kr4d10","4d10","1S0","4d9 2D5/2",2.774,0.004,"L8672c99"
94,"Pu L",49,45,"Plutonium","Rh","Kr4d9","4d9","2D5/2","4d8 3F4",2.844,0.004,"L8672c99"
94,"Pu LI",50,44,"Plutonium","Ru","Kr4d8","4d8","3F4","4d7 4F9/2",2.918,0.004,"L8672c99"
94,"Pu LII",51,43,"Plutonium","Tc","Kr4d7","4d7","4F9/2","4d6 5D4",2.997,0.004,"L8672c99"
94,"Pu LIII",52,42,"Plutonium","Mo","Kr4d6","4d6","5D4","4d5 5/2",3.072,0.004,"L8672c99"
94,"Pu LIV",53,41,"Plutonium","Nb","Kr4d5","4d5","5/2","4d4 5D0",3.146,0.005,"L8672c99"
94,"Pu LV",54,40,"Plutonium","Zr","Kr4d4","4d4","5D0","4d3 4F3/2",3.29,0.005,"L8672c99"
94,"Pu LVI",55,39,"Plutonium","Y","Kr4d3","4d3","4F3/2","4d2 3F2",3.366,0.005,"L8672c99"
94,"Pu LVII",56,38,"Plutonium","Sr","Kr4d2","4d2","3F2","4d 2D3/2",3.449,0.005,"L8672c99"
94,"Pu LVIII",57,37,"Plutonium","Rb","Kr4d","4d","2D3/2","4p6 1S0",3.527,0.006,"L8672c99"
94,"Pu LIX",58,36,"Plutonium","Kr","Ar3d104s24p6","4p6","1S0","4p5 2P°3/2",3.836,0.006,"L8672c99"
94,"Pu LX",59,35,"Plutonium","Br","Ar3d104s24p5","4p5","2P°3/2","4p4 3P2",3.911,0.007,"L8672c99"
94,"Pu LXI",60,34,"Plutonium","Se","Ar3d104s24p4","4p4","3P2","4p3°3/2",3.993,0.01,"L8672c99"
94,"Pu LXII",61,33,"Plutonium","As","Ar3d104s24p3","4p3","°3/2","4p2 3P0",4.068,0.012,"L8672c99"
94,"Pu LXIII",62,32,"Plutonium","Ge","Ar3d104s24p2","4p2","3P0","4p 2P°1/2",4.496,0.015,"L8672c99"
94,"Pu LXIV",63,31,"Plutonium","Ga","Ar3d104s24p","4p","2P°1/2","4s2 1S0",4.585,0.019,"L8672c99"
94,"Pu LXV",64,30,"Plutonium","Zn","Ar3d104s2","4s2","1S0","4s 2S1/2",4.807,0.024,"L8672c99"
94,"Pu LXVI",65,29,"Plutonium","Cu","Ar3d104s","4s","2S1/2","3d10 1S0",4.89,0.03,"L8672c99"
94,"Pu LXVII",66,28,"Plutonium","Ni","Ar3d10","3d10","1S0","3d9 2D5/2",7.83,0.04,"L8672c99"
94,"Pu LXVIII",67,27,"Plutonium","Co","Ar3d9","3d9","2D5/2","3d8 3F4",7.99,0.04,"L8672c99"
94,"Pu LXIX",68,26,"Plutonium","Fe","Ar3d8","3d8","3F4","3d7 4F9/2",8.17,0.05,"L8672c99"
94,"Pu LXX",69,25,"Plutonium","Mn","Ar3d7","3d7","4F9/2","3d6 4",8.36,0.05,"L8672c99"
94,"Pu LXXI",70,24,"Plutonium","Cr","Ar3d6","3d6","4","3d5 5/2",8.54,0.06,"L8672c99"
94,"Pu LXXII",71,23,"Plutonium","V","Ar3d5","3d5","5/2","3d4 5D0",8.71,0.06,"L8672c99"
94,"Pu LXXIII",72,22,"Plutonium","Ti","Ar3d4","3d4","5D0","3d3 4F3/2",9.13,0.07,"L8672c99"
94,"Pu LXXIV",73,21,"Plutonium","Sc","Ar3d3","3d3","4F3/2","3d2 3F2",9.31,0.09,"L8672c99"
94,"Pu LXXV",74,20,"Plutonium","Ca","Ar3d2","3d2","3F2","3d 2D3/2",9.52,0.09,"L8672c99"
94,"Pu LXXVI",75,19,"Plutonium","K","Ar3d","3d","2D3/2","3p6 1S0",9.7,0.1,"L8672c99"
94,"Pu LXXVII",76,18,"Plutonium","Ar","Ne3s23p6","3p6","1S0","3p5 2P°3/2",10.23,0.11,"L8672c99"
94,"Pu LXXVIII",77,17,"Plutonium","Cl","Ne3s23p5","3p5","2P°3/2","3p4 3P2",10.39,0.12,"L8672c99"
94,"Pu LXXIX",78,16,"Plutonium","S","Ne3s23p4","3p4","3P2","3p3 2P°3/2",10.57,0.12,"L8672c99"
94,"Pu LXXX",79,15,"Plutonium","P","Ne3s23p3","3p3","2P°3/2","3p2 3P0",10.73,0.14,"L8672c99"
94,"Pu LXXXI",80,14,"Plutonium","Si","Ne3s23p2","3p2","3P0","3p 2P°1/2",12.06,0.15,"L8672c99"
94,"Pu LXXXII",81,13,"Plutonium","Al","Ne3s23p","3p","2P°1/2","3s2 1S0",12.26,0.16,"L8672c99"
94,"Pu LXXXIII",82,12,"Plutonium","Mg","Ne3s2","3s2","1S0","3s 2S1/2",12.66,0.17,"L8672c99"
94,"Pu LXXXIV",83,11,"Plutonium","Na","Ne3s","3s","2S1/2","2p6 1S0",12.84,0.19,"L8672c99"
94,"Pu LXXXV",84,10,"Plutonium","Ne","1s22s22p6","2p6","1S0","2p5 2P°3/2",26.48,0.2,"L8672c99"
94,"Pu LXXXVI",85,9,"Plutonium","F","1s22s22p5","2p5","2P°3/2","2p4 3P2",26.92,0.22,"L8672c99"
94,"Pu LXXXVII",86,8,"Plutonium","O","1s22s22p4","2p4","3P2","2p21/22p3/2 0,3/2°3/2",27.4,0.24,"L8672c99"
94,"Pu LXXXVIII",87,7,"Plutonium","N","1s22s22p3","2p21/22p3/2","0,3/2°3/2","2p2 3P0",27.84,0.25,"L8672c99"
94,"Pu LXXXIX",88,6,"Plutonium","C","1s22s22p2","2p2","3P0","2p 2P°1/2",32.8,0.3,"L8672c99"
94,"Pu XC",89,5,"Plutonium","B","1s22s22p","2p","2P°1/2","2s2 1S0",33.4,0.3,"L8672c99"
94,"Pu XCI",90,4,"Plutonium","Be","1s22s2","2s2","1S0","2s 2S1/2",34.1,0.3,"L8672c99"
94,"Pu XCII",91,3,"Plutonium","Li","1s22s","2s","2S1/2","1s2 1S0",34.6258,7e-04,"L16264c99"
94,"Pu XCIII",92,2,"Plutonium","He","1s2","1s2","1S0","1s 2S1/2",136.2992,0.0011,"L10054"
94,"Pu XCIV",93,1,"Plutonium","H","1s","1s","2S1/2",NA,138.646,0.003,"L7188"
95,"Am I",0,95,"Americium","Am","Rn5f77s2","5f77s2","8S°7/2","5f77s 9S°4",0.00597381,2.5e-07,"L15992"
95,"Am II",1,94,"Americium","Pu","Rn5f77s","5f77s","9S°4","5f7 8S°7/2",0.0117,4e-04,"L13741c99"
95,"Am III",2,93,"Americium","Np","Rn5f7","5f7","8S°7/2","5f6 7F0",0.0217,4e-04,"L13741c99"
95,"Am IV",3,92,"Americium","U","Rn5f6","5f6","7F0","5f5 6H°5/2",0.0368,4e-04,"L13741c99"
95,"Am V",4,91,"Americium","Pa","Rn5f5","5f5","6H°5/2","5f4 5I4",0.05,0.0019,"L8672c99"
95,"Am VI",5,90,"Americium","Th","Rn5f4","5f4","5I4","5f36p6 4I°9/2",0.0679,0.002,"L8672c99"
95,"Am VII",6,89,"Americium","Ac","Rn5f3","5f36p6","4I°9/2","5f36p5",0.095,0.005,"L582"
95,"Am VIII",7,88,"Americium","Ra","Hg5f36p5","5f36p5",NA,"5f36p4°",0.11,0.006,"L582"
95,"Am IX",8,87,"Americium","Fr","Hg5f36p4","5f36p4","°","5f36p3",0.125,0.006,"L582"
95,"Am X",9,86,"Americium","Rn","Hg5f36p3","5f36p3",NA,"5f36p2°",0.141,0.007,"L582"
95,"Am XI",10,85,"Americium","At","Hg5f36p2","5f36p2","°","5f26p2",0.163,0.008,"L582"
95,"Am XII",11,84,"Americium","Po","Hg5f26p2","5f26p2",NA,"5f6p2°",0.184,0.009,"L582"
95,"Am XIII",12,83,"Americium","Bi","Hg5f6p2","5f6p2","°","6p2 3P0",0.206,0.01,"L582"
95,"Am XIV",13,82,"Americium","Pb","Hg6p2","6p2","3P0","6p 2P°1/2",0.225,0.003,"L8672c99"
95,"Am XV",14,81,"Americium","Tl","Hg6p","6p","2P°1/2","6s2 1S0",0.242,0.003,"L8672c99"
95,"Am XVI",15,80,"Americium","Hg","Xe4f145d106s2","6s2","1S0","6s 2S1/2",0.284,0.003,"L8672c99"
95,"Am XVII",16,79,"Americium","Au","Xe4f145d106s","6s","2S1/2","5d10 1S0",0.305,0.003,"L8672c99"
95,"Am XVIII",17,78,"Americium","Pt","Xe4f145d10","5d10","1S0","5d9 2D5/2",0.424,0.003,"L8672c99"
95,"Am XIX",18,77,"Americium","Ir","Xe4f145d9","5d9","2D5/2","5d8 3F4",0.451,0.003,"L8672c99"
95,"Am XX",19,76,"Americium","Os","Xe4f145d8","5d8","3F4","5d7 4F9/2",0.481,0.004,"L8672c99"
95,"Am XXI",20,75,"Americium","Re","Xe4f145d7","5d7","4F9/2","5d6 5D4",0.511,0.004,"L8672c99"
95,"Am XXII",21,74,"Americium","W","Xe4f145d6","5d6","5D4","5d5 6S5/2",0.541,0.004,"L8672c99"
95,"Am XXIII",22,73,"Americium","Ta","Xe4f145d5","5d5","6S5/2","5d4 5D0",0.571,0.004,"L8672c99"
95,"Am XXIV",23,72,"Americium","Hf","Xe4f145d4","5d4","5D0","5d3 4F3/2",0.616,0.004,"L8672c99"
95,"Am XXV",24,71,"Americium","Lu","Xe4f145d3","5d3","4F3/2","5d2 3F2",0.646,0.004,"L8672c99"
95,"Am XXVI",25,70,"Americium","Yb","Xe4f145d2","5d2","3F2","5d 2D3/2",0.68,0.004,"L8672c99"
95,"Am XXVII",26,69,"Americium","Tm","Xe4f145d","5d","2D3/2","4f14 1S0",0.711,0.004,"L8672c99"
95,"Am XXVIII",27,68,"Americium","Er","Xe4f14","4f14","1S0","4f145p5 2P°3/2",0.87,0.04,"L582"
95,"Am XXIX",28,67,"Americium","Ho","Cd4f145p5","4f145p5","2P°3/2","4f145p4 3P2",0.9,0.05,"L582"
95,"Am XXX",29,66,"Americium","Dy","Cd4f145p4","4f145p4","3P2","4f145p3 2P°3/2",0.94,0.05,"L582"
95,"Am XXXI",30,65,"Americium","Tb","Cd4f145p3","4f145p3","2P°3/2","4f145p2 3P0",0.98,0.05,"L582"
95,"Am XXXII",31,64,"Americium","Gd","Cd4f145p2","4f145p2","3P0","4f145p 2P°1/2",1.09,0.05,"L582"
95,"Am XXXIII",32,63,"Americium","Eu","Cd4f145p","4f145p","2P°1/2","4f14 1S0",1.13,0.06,"L582"
95,"Am XXXIV",33,62,"Americium","Sm","Cd4f14","4f14","1S0","4f145s 2S1/2",1.24,0.06,"L582"
95,"Am XXXV",34,61,"Americium","Pm","Kr4d104f145s","4f145s","2S1/2","4f14 1S0",1.28,0.06,"L582"
95,"Am XXXVI",35,60,"Americium","Nd","Kr4d104f14","4f14","1S0","4f13 2F°7/2",1.41,0.07,"L582"
95,"Am XXXVII",36,59,"Americium","Pr","Kr4d104f13","4f13","2F°7/2","4f12",1.49,0.07,"L582"
95,"Am XXXVIII",37,58,"Americium","Ce","Kr4d104f12","4f12",NA,"4f11 4I°15/2",1.57,0.08,"L582"
95,"Am XXXIX",38,57,"Americium","La","Kr4d104f11","4f11","4I°15/2","4f10 5I8",1.65,0.09,"L582"
95,"Am XL",39,56,"Americium","Ba","Kr4d104f10","4f10","5I8","4f9 6H°15/2",1.73,0.09,"L582"
95,"Am XLI",40,55,"Americium","Cs","Kr4d104f9","4f9","6H°15/2","4f8 7F6",1.82,0.09,"L582"
95,"Am XLII",41,54,"Americium","Xe","Kr4d104f8","4f8","7F6","4f7 8S°7/2",1.9,0.09,"L582"
95,"Am XLIII",42,53,"Americium","I","Kr4d104f7","4f7","8S°7/2","4f6 7F0",1.98,0.1,"L582"
95,"Am XLIV",43,52,"Americium","Te","Kr4d104f6","4f6","7F0","4f5 6H°5/2",2.07,0.1,"L582"
95,"Am XLV",44,51,"Americium","Sb","Kr4d104f5","4f5","6H°5/2","4f4 5I4",2.16,0.11,"L582"
95,"Am XLVI",45,50,"Americium","Sn","Kr4d104f4","4f4","5I4","4f3 4I°9/2",2.24,0.11,"L582"
95,"Am XLVII",46,49,"Americium","In","Kr4d104f3","4f3","4I°9/2","4f2 3H4",2.32,0.11,"L582"
95,"Am XLVIII",47,48,"Americium","Cd","Kr4d104f2","4f2","3H4","4f 2F°5/2",2.41,0.12,"L582"
95,"Am XLIX",48,47,"Americium","Ag","Kr4d104f","4f","2F°5/2","4d10 1S0",2.48,0.12,"L582"
95,"Am L",49,46,"Americium","Pd","Kr4d10","4d10","1S0","4d9 2D5/2",2.874,0.004,"L8672c99"
95,"Am LI",50,45,"Americium","Rh","Kr4d9","4d9","2D5/2","4d8 3F4",2.946,0.004,"L8672c99"
95,"Am LII",51,44,"Americium","Ru","Kr4d8","4d8","3F4","4d7 4F9/2",3.021,0.004,"L8672c99"
95,"Am LIII",52,43,"Americium","Tc","Kr4d7","4d7","4F9/2","4d6 5D4",3.101,0.004,"L8672c99"
95,"Am LIV",53,42,"Americium","Mo","Kr4d6","4d6","5D4","4d5 5/2",3.178,0.005,"L8672c99"
95,"Am LV",54,41,"Americium","Nb","Kr4d5","4d5","5/2","4d4 5D0",3.251,0.005,"L8672c99"
95,"Am LVI",55,40,"Americium","Zr","Kr4d4","4d4","5D0","4d3 4F3/2",3.402,0.005,"L8672c99"
95,"Am LVII",56,39,"Americium","Y","Kr4d3","4d3","4F3/2","4d2 3F2",3.479,0.005,"L8672c99"
95,"Am LVIII",57,38,"Americium","Sr","Kr4d2","4d2","3F2","4d 2D3/2",3.563,0.006,"L8672c99"
95,"Am LIX",58,37,"Americium","Rb","Kr4d","4d","2D3/2","4p6 1S0",3.641,0.006,"L8672c99"
95,"Am LX",59,36,"Americium","Kr","Ar3d104s24p6","4p6","1S0","4p5 2P°3/2",3.956,0.007,"L8672c99"
95,"Am LXI",60,35,"Americium","Br","Ar3d104s24p5","4p5","2P°3/2","4p4 3P2",4.033,0.01,"L8672c99"
95,"Am LXII",61,34,"Americium","Se","Ar3d104s24p4","4p4","3P2","4p3°3/2",4.115,0.012,"L8672c99"
95,"Am LXIII",62,33,"Americium","As","Ar3d104s24p3","4p3","°3/2","4p2 3P0",4.191,0.015,"L8672c99"
95,"Am LXIV",63,32,"Americium","Ge","Ar3d104s24p2","4p2","3P0","4p 2P°1/2",4.642,0.019,"L8672c99"
95,"Am LXV",64,31,"Americium","Ga","Ar3d104s24p","4p","2P°1/2","4s2 1S0",4.733,0.024,"L8672c99"
95,"Am LXVI",65,30,"Americium","Zn","Ar3d104s2","4s2","1S0","4s 2S1/2",4.96,0.03,"L8672c99"
95,"Am LXVII",66,29,"Americium","Cu","Ar3d104s","4s","2S1/2","3d10 1S0",5.05,0.04,"L8672c99"
95,"Am LXVIII",67,28,"Americium","Ni","Ar3d10","3d10","1S0","3d9 2D5/2",8.04,0.04,"L8672c99"
95,"Am LXIX",68,27,"Americium","Co","Ar3d9","3d9","2D5/2","3d8 3F4",8.21,0.05,"L8672c99"
95,"Am LXX",69,26,"Americium","Fe","Ar3d8","3d8","3F4","3d7 4F9/2",8.39,0.05,"L8672c99"
95,"Am LXXI",70,25,"Americium","Mn","Ar3d7","3d7","4F9/2","3d6 4",8.59,0.06,"L8672c99"
95,"Am LXXII",71,24,"Americium","Cr","Ar3d6","3d6","4","3d5 5/2",8.77,0.06,"L8672c99"
95,"Am LXXIII",72,23,"Americium","V","Ar3d5","3d5","5/2","3d4 5D0",8.95,0.07,"L8672c99"
95,"Am LXXIV",73,22,"Americium","Ti","Ar3d4","3d4","5D0","3d3 4F3/2",9.38,0.09,"L8672c99"
95,"Am LXXV",74,21,"Americium","Sc","Ar3d3","3d3","4F3/2","3d2 3F2",9.56,0.09,"L8672c99"
95,"Am LXXVI",75,20,"Americium","Ca","Ar3d2","3d2","3F2","3d 2D3/2",9.77,0.1,"L8672c99"
95,"Am LXXVII",76,19,"Americium","K","Ar3d","3d","2D3/2","3p6 1S0",9.96,0.11,"L8672c99"
95,"Am LXXVIII",77,18,"Americium","Ar","Ne3s23p6","3p6","1S0","3p5 2P°3/2",10.49,0.12,"L8672c99"
95,"Am LXXIX",78,17,"Americium","Cl","Ne3s23p5","3p5","2P°3/2","3p4 3P2",10.65,0.12,"L8672c99"
95,"Am LXXX",79,16,"Americium","S","Ne3s23p4","3p4","3P2","3p3 2P°3/2",10.83,0.14,"L8672c99"
95,"Am LXXXI",80,15,"Americium","P","Ne3s23p3","3p3","2P°3/2","3p2 3P0",11,0.15,"L8672c99"
95,"Am LXXXII",81,14,"Americium","Si","Ne3s23p2","3p2","3P0","3p 2P°1/2",12.4,0.16,"L8672c99"
95,"Am LXXXIII",82,13,"Americium","Al","Ne3s23p","3p","2P°1/2","3s2 1S0",12.6,0.17,"L8672c99"
95,"Am LXXXIV",83,12,"Americium","Mg","Ne3s2","3s2","1S0","3s 2S1/2",13,0.19,"L8672c99"
95,"Am LXXXV",84,11,"Americium","Na","Ne3s","3s","2S1/2","2p6 1S0",13.19,0.2,"L8672c99"
95,"Am LXXXVI",85,10,"Americium","Ne","1s22s22p6","2p6","1S0","2p5 2P°3/2",27.11,0.22,"L8672c99"
95,"Am LXXXVII",86,9,"Americium","F","1s22s22p5","2p5","2P°3/2","2p4 3P2",27.55,0.24,"L8672c99"
95,"Am LXXXVIII",87,8,"Americium","O","1s22s22p4","2p4","3P2","2p21/22p3/2 0,3/2°3/2",28.04,0.25,"L8672c99"
95,"Am LXXXIX",88,7,"Americium","N","1s22s22p3","2p21/22p3/2","0,3/2°3/2","2p2 3P0",28.5,0.3,"L8672c99"
95,"Am XC",89,6,"Americium","C","1s22s22p2","2p2","3P0","2p 2P°1/2",33.7,0.3,"L8672c99"
95,"Am XCI",90,5,"Americium","B","1s22s22p","2p","2P°1/2","2s2 1S0",34.3,0.3,"L8672c99"
95,"Am XCII",91,4,"Americium","Be","1s22s2","2s2","1S0","2s 2S1/2",35.1,0.3,"L8672c99"
95,"Am XCIII",92,3,"Americium","Li","1s22s","2s","2S1/2","1s2 1S0",35.5494,7e-04,"L16264c99"