"Z","Species","CS","Occ","Element","Iso_elec","Ground_Shells","Ground_Config","Ground_Level","Ionized_Level","IE","IE_uncertainty","References"
51,"Sb XXVII",26,25,"Antimony","Mn","Ar3d7","3d7","4F9/2","3d6 5D4",1.441,0.004,"L8672c99"
51,"Sb XXVIII",27,24,"Antimony","Cr","Ar3d6","3d6","5D4","3d5 6S5/2",1.518,0.004,"L8672c99"
51,"Sb XXIX",28,23,"Antimony","V","Ar3d5","3d5","6S5/2","3d4 5D0",1.606,0.004,"L8672c99"
51,"Sb XXX",29,22,"Antimony","Ti","Ar3d4","3d4","5D0","3d3 4F3/2",1.698,0.004,"L8672c99"
51,"Sb XXXI",30,21,"Antimony","Sc","Ar3d3","3d3","4F3/2","3d2 3F2",1.781,0.004,"L8672c99"
51,"Sb XXXII",31,20,"Antimony","Ca","Ar3d2","3d2","3F2","3d 2D3/2",1.869,0.004,"L8672c99"
51,"Sb XXXIII",32,19,"Antimony","K","Ar3d","3d","2D3/2","3p6 1S0",1.954,0.004,"L8672c99"
51,"Sb XXXIV",33,18,"Antimony","Ar","Ne3s23p6","3p6","1S0","3p5 2P°3/2",2.19,0.005,"L8672c99"
51,"Sb XXXV",34,17,"Antimony","Cl","Ne3s23p5","3p5","2P°3/2","3p4 3P2",2.266,0.005,"L8672c99"
51,"Sb XXXVI",35,16,"Antimony","S","Ne3s23p4","3p4","3P2","3p3 4S°3/2",2.349,0.005,"L8672c99"
51,"Sb XXXVII",36,15,"Antimony","P","Ne3s23p3","3p3","4S°3/2","3p2 3P0",2.428,0.005,"L8672c99"
51,"Sb XXXVIII",37,14,"Antimony","Si","Ne3s23p2","3p2","3P0","3p 2P°1/2",2.567,0.004,"L8672c99"
51,"Sb XXXIX",38,13,"Antimony","Al","Ne3s23p","3p","2P°1/2","3s2 1S0",2.654,0.004,"L8672c99"
51,"Sb XL",39,12,"Antimony","Mg","Ne3s2","3s2","1S0","3s 2S1/2",2.815,0.004,"L8672c99"
51,"Sb XLI",40,11,"Antimony","Na","Ne3s","3s","2S1/2","2p6 1S0",2.9,5e-04,"L10264c99"
51,"Sb XLII",41,10,"Antimony","Ne","1s22s22p6","2p6","1S0","2p5 2P°3/2",6.714,0.004,"L8672c99"
51,"Sb XLIII",42,9,"Antimony","F","1s22s22p5","2p5","2P°3/2","2p4 3P2",6.929,0.004,"L8672c99"
51,"Sb XLIV",43,8,"Antimony","O","1s22s22p4","2p4","3P2","2p21/22p3/2 0,3/2°3/2",7.167,0.004,"L8672c99"
51,"Sb XLV",44,7,"Antimony","N","1s22s22p3","2p21/22p3/2","0,3/2°3/2","2p2 3P0",7.39,0.004,"L8672c99"
51,"Sb XLVI",45,6,"Antimony","C","1s22s22p2","2p2","3P0","2p 2P°1/2",7.887,0.004,"L8672c99"
51,"Sb XLVII",46,5,"Antimony","B","1s22s22p","2p","2P°1/2","2s2 1S0",8.14,0.004,"L8672c99"
51,"Sb XLVIII",47,4,"Antimony","Be","1s22s2","2s2","1S0","2s 2S1/2",8.455,0.004,"L8672c99"
51,"Sb XLIX",48,3,"Antimony","Li","1s22s","2s","2S1/2","1s2 1S0",8.66948,4e-05,"L16264c99"
51,"Sb L",49,2,"Antimony","He","1s2","1s2","1S0","1s 2S1/2",35.710028,1.1e-05,"L12128"
51,"Sb LI",50,1,"Antimony","H","1s","1s","2S1/2",NA,36.66805,6e-05,"L7188"
52,"Te I",0,52,"Tellurium","Te","Cd5p4","5p4","3P2","5s25p3 4S°3/2",0.009009808,6e-09,"L21109"
52,"Te II",1,51,"Tellurium","Sb","Cd5p3","5s25p3","4S°3/2","5s25p2 3P0",0.0186,4e-04,"L3546"
52,"Te III",2,50,"Tellurium","Sn","Cd5p2","5s25p2","3P0","5s25p 2P1/2",0.02784,4e-05,"L17749"
52,"Te IV",3,49,"Tellurium","In","Cd5p","5s25p","2P°1/2","5s2 1S0",0.0374155,1.2e-06,"L16261"
52,"Te V",4,48,"Tellurium","Cd","Kr4d105s2","5s2","1S0","5s 2S1/2",0.0593,9e-04,"L11821c99"
52,"Te VI",5,47,"Tellurium","Ag","Kr4d105s","4d105s","2S1/2","4d10 1S0",0.0691,0.002,"L8672c99"
52,"Te VII",6,46,"Tellurium","Pd","Kr4d10","4d10","1S0","4d9 2D5/2",0.1242,6e-05,"L11384"
52,"Te VIII",7,45,"Tellurium","Rh","Kr4d9","4d9","2D5/2","4d8 3F4",0.143,0.0021,"L8672c99"
52,"Te IX",8,44,"Tellurium","Ru","Kr4d8","4d8","3F4","4d7 4F9/2",0.167,0.0022,"L8672c99"
52,"Te X",9,43,"Tellurium","Tc","Kr4d7","4d7","4F9/2","4d6 5D4",0.1911,0.0022,"L8672c99"
52,"Te XI",10,42,"Tellurium","Mo","Kr4d6","4d6","5D4","4d5 6S5/2",0.215,0.0024,"L8672c99"
52,"Te XII",11,41,"Tellurium","Nb","Kr4d5","4d5","6S5/2","4d4 5D0",0.245,0.0025,"L8672c99"
52,"Te XIII",12,40,"Tellurium","Zr","Kr4d4","4d4","5D0","4d3 4F3/2",0.272,0.003,"L8672c99"
52,"Te XIV",13,39,"Tellurium","Y","Kr4d3","4d3","4F3/2","4d2 3F2",0.299,0.003,"L8672c99"
52,"Te XV",14,38,"Tellurium","Sr","Kr4d2","4d2","3F2","4d 2D3/2",0.328,0.003,"L8672c99"
52,"Te XVI",15,37,"Tellurium","Rb","Kr4d","4d","2D3/2","4p6 1S0",0.354,0.003,"L8672c99"
52,"Te XVII",16,36,"Tellurium","Kr","Ar3d104s24p6","4p6","1S0","4p5 2P°3/2",0.461,0.003,"L8672c99"
52,"Te XVIII",17,35,"Tellurium","Br","Ar3d104s24p5","4p5","2P°3/2","4p4 3P2",0.491,0.003,"L8672c99"
52,"Te XIX",18,34,"Tellurium","Se","Ar3d104s24p4","4p4","3P2","4p3 4S°3/2",0.522,0.003,"L8672c99"
52,"Te XX",19,33,"Tellurium","As","Ar3d104s24p3","4p3","4S°3/2","4p2 3P0",0.555,0.004,"L8672c99"
52,"Te XXI",20,32,"Tellurium","Ge","Ar3d104s24p2","4p2","3P0","4p 2P°1/2",0.599,0.004,"L8672c99"
52,"Te XXII",21,31,"Tellurium","Ga","Ar3d104s24p","4p","2P°1/2","4s2 1S0",0.633,0.004,"L8672c99"
52,"Te XXIII",22,30,"Tellurium","Zn","Ar3d104s2","4s2","1S0","4s 2S1/2",0.709,0.004,"L8672c99"
52,"Te XXIV",23,29,"Tellurium","Cu","Ar3d104s","4s","2S1/2","3d10 1S0",0.74612,0.00025,"L10922"
52,"Te XXV",24,28,"Tellurium","Ni","Ar3d10","3d10","1S0","3d9 2D5/2",1.304,0.004,"L8672c99"
52,"Te XXVI",25,27,"Tellurium","Co","Ar3d9","3d9","2D5/2","3d8 3F4",1.377,0.004,"L8672c99"
52,"Te XXVII",26,26,"Tellurium","Fe","Ar3d8","3d8","3F4","3d7 4F9/2",1.455,0.004,"L8672c99"
52,"Te XXVIII",27,25,"Tellurium","Mn","Ar3d7","3d7","4F9/2","3d6 5D4",1.538,0.004,"L8672c99"
52,"Te XXIX",28,24,"Tellurium","Cr","Ar3d6","3d6","5D4","3d5 6S5/2",1.618,0.004,"L8672c99"
52,"Te XXX",29,23,"Tellurium","V","Ar3d5","3d5","6S5/2","3d4 5D0",1.707,0.004,"L8672c99"
52,"Te XXXI",30,22,"Tellurium","Ti","Ar3d4","3d4","5D0","3d3 4F3/2",1.803,0.004,"L8672c99"
52,"Te XXXII",31,21,"Tellurium","Sc","Ar3d3","3d3","4F3/2","3d2 3F2",1.889,0.004,"L8672c99"
52,"Te XXXIII",32,20,"Tellurium","Ca","Ar3d2","3d2","3F2","3d 2D3/2",1.979,0.004,"L8672c99"
52,"Te XXXIV",33,19,"Tellurium","K","Ar3d","3d","2D3/2","3p6 1S0",2.066,0.005,"L8672c99"
52,"Te XXXV",34,18,"Tellurium","Ar","Ne3s23p6","3p6","1S0","3p5 2P°3/2",2.309,0.005,"L8672c99"
52,"Te XXXVI",35,17,"Tellurium","Cl","Ne3s23p5","3p5","2P°3/2","3p4 3P2",2.386,0.005,"L8672c99"
52,"Te XXXVII",36,16,"Tellurium","S","Ne3s23p4","3p4","3P2","3p3 4S°3/2",2.472,0.005,"L8672c99"
52,"Te XXXVIII",37,15,"Tellurium","P","Ne3s23p3","3p3","4S°3/2","3p2 3P0",2.552,0.004,"L8672c99"
52,"Te XXXIX",38,14,"Tellurium","Si","Ne3s23p2","3p2","3P0","3p 2P°1/2",2.7,0.004,"L8672c99"
52,"Te XL",39,13,"Tellurium","Al","Ne3s23p","3p","2P°1/2","3s2 1S0",2.788,0.004,"L8672c99"
52,"Te XLI",40,12,"Tellurium","Mg","Ne3s2","3s2","1S0","3s 2S1/2",2.954,0.004,"L8672c99"
52,"Te XLII",41,11,"Tellurium","Na","Ne3s","3s","2S1/2","2p6 1S0",3.041,5e-04,"L10264c99"
52,"Te XLIII",42,10,"Tellurium","Ne","1s22s22p6","2p6","1S0","2p5 2P°3/2",7.022,0.004,"L8672c99"
52,"Te XLIV",43,9,"Tellurium","F","1s22s22p5","2p5","2P°3/2","2p4 3P2",7.243,0.004,"L8672c99"
52,"Te XLV",44,8,"Tellurium","O","1s22s22p4","2p4","3P2","2p21/22p3/2 0,3/2°3/2",7.485,0.004,"L8672c99"
52,"Te XLVI",45,7,"Tellurium","N","1s22s22p3","2p21/22p3/2","0,3/2°3/2","2p2 3P0",7.714,0.004,"L8672c99"
52,"Te XLVII",46,6,"Tellurium","C","1s22s22p2","2p2","3P0","2p 2P°1/2",8.24,0.004,"L8672c99"
52,"Te XLVIII",47,5,"Tellurium","B","1s22s22p","2p","2P°1/2","2s2 1S0",8.499,0.004,"L8672c99"
52,"Te XLIX",48,4,"Tellurium","Be","1s22s2","2s2","1S0","2s 2S1/2",8.821,0.004,"L8672c99"
52,"Te L",49,3,"Tellurium","Li","1s22s","2s","2S1/2","1s2 1S0",9.04083,4e-05,"L16264c99"
52,"Te LI",50,2,"Tellurium","He","1s2","1s2","1S0","1s 2S1/2",37.196522,1.2e-05,"L12128"
52,"Te LII",51,1,"Tellurium","H","1s","1s","2S1/2",NA,38.17756,6e-05,"L7188"
53,"I I",0,53,"Iodine","I","Cd5p5","5s25p5","2P°3/2","5s25p4 3P2",0.01045126,2.5e-08,"L13998"
53,"I II",1,52,"Iodine","Te","Cd5p4","5s25p4","3P2","5s25p3 4S3/2",0.01913126,1.2e-07,"L7360"
53,"I III",2,51,"Iodine","Sb","Cd5p3","5s25p3","4S°3/2","5s25p2 3P0",0.02957,2.5e-05,"L11993"
53,"I IV",3,50,"Iodine","Sn","Cd5p2","5s25p2","3P0","5s25p 2P1/2",0.040357,2.5e-05,"L11994"
53,"I V",4,49,"Iodine","In","Cd5p","5s25p","2P°1/2","5s2 1S0",0.05152,4e-05,"L10105"
53,"I VI",5,48,"Iodine","Cd","Kr4d105s2","5s2","1S0","5s 2S1/2",0.0744,4e-04,"L10105"
53,"I VII",6,47,"Iodine","Ag","Kr4d105s","4d105s","2S1/2","4d10 1S0",0.08761,6e-05,"L5438"
53,"I VIII",7,46,"Iodine","Pd","Kr4d10","4d10","1S0","4d9 2D5/2",0.15081,1e-04,"L11384"
53,"I IX",8,45,"Iodine","Rh","Kr4d9","4d9","2D5/2","4d8 3F4",0.171,0.0022,"L8672c99"
53,"I X",9,44,"Iodine","Ru","Kr4d8","4d8","3F4","4d7 4F9/2",0.197,0.0022,"L8672c99"
53,"I XI",10,43,"Iodine","Tc","Kr4d7","4d7","4F9/2","4d6 5D4",0.2209,0.0024,"L8672c99"
53,"I XII",11,42,"Iodine","Mo","Kr4d6","4d6","5D4","4d5 6S5/2",0.247,0.0025,"L8672c99"
53,"I XIII",12,41,"Iodine","Nb","Kr4d5","4d5","6S5/2","4d4 5D0",0.279,0.003,"L8672c99"
53,"I XIV",13,40,"Iodine","Zr","Kr4d4","4d4","5D0","4d3 4F3/2",0.307,0.003,"L8672c99"
53,"I XV",14,39,"Iodine","Y","Kr4d3","4d3","4F3/2","4d2 3F2",0.335,0.003,"L8672c99"
53,"I XVI",15,38,"Iodine","Sr","Kr4d2","4d2","3F2","4d 2D3/2",0.365,0.003,"L8672c99"
53,"I XVII",16,37,"Iodine","Rb","Kr4d","4d","2D3/2","4p6 1S0",0.393,0.003,"L8672c99"
53,"I XVIII",17,36,"Iodine","Kr","Ar3d104s24p6","4p6","1S0","4p5 2P°3/2",0.505,0.003,"L8672c99"
53,"I XIX",18,35,"Iodine","Br","Ar3d104s24p5","4p5","2P°3/2","4p4 3P2",0.535,0.003,"L8672c99"
53,"I XX",19,34,"Iodine","Se","Ar3d104s24p4","4p4","3P2","4p3 4S°3/2",0.569,0.004,"L8672c99"
53,"I XXI",20,33,"Iodine","As","Ar3d104s24p3","4p3","4S°3/2","4p2 3P0",0.601,0.004,"L8672c99"
53,"I XXII",21,32,"Iodine","Ge","Ar3d104s24p2","4p2","3P0","4p 2P°1/2",0.649,0.004,"L8672c99"
53,"I XXIII",22,31,"Iodine","Ga","Ar3d104s24p","4p","2P°1/2","4s2 1S0",0.683,0.004,"L8672c99"
53,"I XXIV",23,30,"Iodine","Zn","Ar3d104s2","4s2","1S0","4s 2S1/2",0.762,0.004,"L8672c99"
53,"I XXV",24,29,"Iodine","Cu","Ar3d104s","4s","2S1/2","3d10 1S0",0.8008,4e-04,"L10278"
53,"I XXVI",25,28,"Iodine","Ni","Ar3d10","3d10","1S0","3d9 2D5/2",1.397,0.004,"L8672c99"
53,"I XXVII",26,27,"Iodine","Co","Ar3d9","3d9","2D5/2","3d8 3F4",1.472,0.004,"L8672c99"
53,"I XXVIII",27,26,"Iodine","Fe","Ar3d8","3d8","3F4","3d7 4F9/2",1.553,0.004,"L8672c99"
53,"I XXIX",28,25,"Iodine","Mn","Ar3d7","3d7","4F9/2","3d6 5D4",1.639,0.004,"L8672c99"
53,"I XXX",29,24,"Iodine","Cr","Ar3d6","3d6","5D4","3d5 6S5/2",1.72,0.004,"L8672c99"
53,"I XXXI",30,23,"Iodine","V","Ar3d5","3d5","6S5/2","3d4 5D0",1.812,0.004,"L8672c99"
53,"I XXXII",31,22,"Iodine","Ti","Ar3d4","3d4","5D0","3d3 4F3/2",1.911,0.004,"L8672c99"
53,"I XXXIII",32,21,"Iodine","Sc","Ar3d3","3d3","4F3/2","3d2 3F2",1.999,0.004,"L8672c99"
53,"I XXXIV",33,20,"Iodine","Ca","Ar3d2","3d2","3F2","3d 2D3/2",2.093,0.005,"L8672c99"
53,"I XXXV",34,19,"Iodine","K","Ar3d","3d","2D3/2","3p6 1S0",2.181,0.005,"L8672c99"
53,"I XXXVI",35,18,"Iodine","Ar","Ne3s23p6","3p6","1S0","3p5 2P°3/2",2.431,0.005,"L8672c99"
53,"I XXXVII",36,17,"Iodine","Cl","Ne3s23p5","3p5","2P°3/2","3p4 3P2",2.51,0.005,"L8672c99"
53,"I XXXVIII",37,16,"Iodine","S","Ne3s23p4","3p4","3P2","3p3 4S°3/2",2.598,0.004,"L8672c99"
53,"I XXXIX",38,15,"Iodine","P","Ne3s23p3","3p3","4S°3/2","3p2 3P0",2.68,0.004,"L8672c99"
53,"I XL",39,14,"Iodine","Si","Ne3s23p2","3p2","3P0","3p 2P°1/2",2.836,0.004,"L8672c99"
53,"I XLI",40,13,"Iodine","Al","Ne3s23p","3p","2P°1/2","3s2 1S0",2.926,0.004,"L8672c99"
53,"I XLII",41,12,"Iodine","Mg","Ne3s2","3s2","1S0","3s 2S1/2",3.096,0.004,"L8672c99"
53,"I XLIII",42,11,"Iodine","Na","Ne3s","3s","2S1/2","2p6 1S0",3.1855,5e-04,"L10264c99"
53,"I XLIV",43,10,"Iodine","Ne","1s22s22p6","2p6","1S0","2p5 2P°3/2",7.337,0.004,NA
53,"I XLV",44,9,"Iodine","F","1s22s22p5","2p5","2P°3/2","2p4 3P2",7.563,0.004,"L8672c99"
53,"I XLVI",45,8,"Iodine","O","1s22s22p4","2p4","3P2","2p21/22p3/2 0,3/2°3/2",7.811,0.004,"L8672c99"
53,"I XLVII",46,7,"Iodine","N","1s22s22p3","2p21/22p3/2","0,3/2°3/2","2p2 3P0",8.044,0.004,"L8672c99"
53,"I XLVIII",47,6,"Iodine","C","1s22s22p2","2p2","3P0","2p 2P°1/2",8.601,0.004,"L8672c99"
53,"I XLIX",48,5,"Iodine","B","1s22s22p","2p","2P°1/2","2s2 1S0",8.867,0.004,"L8672c99"
53,"I L",49,4,"Iodine","Be","1s22s2","2s2","1S0","2s 2S1/2",9.196,0.004,"L8672c99"
53,"I LI",50,3,"Iodine","Li","1s22s","2s","2S1/2","1s2 1S0",9.4211,4e-05,"L16264c99"
53,"I LII",51,2,"Iodine","He","1s2","1s2","1S0","1s 2S1/2",38.716996,1.4e-05,"L12128"
53,"I LIII",52,1,"Iodine","H","1s","1s","2S1/2",NA,39.72141,5e-05,"L7188"
54,"Xe I",0,54,"Xenon","Xe","Cd5p6","5p6","1S0","5s25p5 2P°3/2",0.0121298437,1.5e-09,"L12013,L9794,L6426"
54,"Xe II",1,53,"Xenon","I","Cd5p5","5p5","2P°3/2","5s25p4 3P2",0.020975,4e-06,"L6925"
54,"Xe III",2,52,"Xenon","Te","Cd5p4","5s25p4","3P2","5s25p3 4S3/2",0.03105,4e-05,"L4660,L10579"
54,"Xe IV",3,51,"Xenon","Sb","Cd5p3","5s25p3","4S°3/2","5s25p2 3P0",0.0422,2e-04,"L8774"
54,"Xe V",4,50,"Xenon","Sn","Cd5p2","5s25p2","3P0","5s25p 2P1/2",0.0541,5e-04,"L11121"
54,"Xe VI",5,49,"Xenon","In","Cd5p","5s25p","2P°1/2","5s2 1S0",0.066703,7e-06,"L11642"
54,"Xe VII",6,48,"Xenon","Cd","Kr4d105s2","5s2","1S0","5s 2S1/2",0.0916,5e-04,"L6980"
54,"Xe VIII",7,47,"Xenon","Ag","Kr4d105s","5s","2S1/2","4d10 1S0",0.1059778,2.5e-06,"L9065"
54,"Xe IX",8,46,"Xenon","Pd","Kr4d10","4d10","1S0","4d9 2D5/2",0.17984,0.00012,"L11883"
54,"Xe X",9,45,"Xenon","Rh","Kr4d9","4d9","2D5/2","4d8 3F4",0.202,0.0022,"L8672c99"
54,"Xe XI",10,44,"Xenon","Ru","Kr4d8","4p64d8","3F4","4d7 4F9/2",0.22902,2e-04,"L12003"
54,"Xe XII",11,43,"Xenon","Tc","Kr4d7","4d7","4F9/2","4d6 5D4",0.255,0.0025,"L8672c99"
54,"Xe XIII",12,42,"Xenon","Mo","Kr4d6","4d6","5D4","4d5 6S5/2",0.281,0.003,"L8672c99"
54,"Xe XIV",13,41,"Xenon","Nb","Kr4d5","4d5","6S5/2","4d4 5D0",0.314,0.003,"L8672c99"
54,"Xe XV",14,40,"Xenon","Zr","Kr4d4","4d4","5D0","4d3 4F3/2",0.343,0.003,"L8672c99"
54,"Xe XVI",15,39,"Xenon","Y","Kr4d3","4d3","4F3/2","4d2 3F2",0.374,0.003,"L8672c99"
54,"Xe XVII",16,38,"Xenon","Sr","Kr4d2","4d2","3F2","4d 2D3/2",0.404,0.003,"L8672c99"
54,"Xe XVIII",17,37,"Xenon","Rb","Kr4d","4d","2D3/2","4p6 1S0",0.434,0.003,"L8672c99"
54,"Xe XIX",18,36,"Xenon","Kr","Ar3d104s24p6","4p6","1S0","4p5 2P°3/2",0.549,0.003,"L8672c99"
54,"Xe XX",19,35,"Xenon","Br","Ar3d104s24p5","4p5","2P°3/2","4p4 3P2",0.582,0.004,"L8672c99"
54,"Xe XXI",20,34,"Xenon","Se","Ar3d104s24p4","4p4","3P2","4p3 4S°3/2",0.616,0.004,"L8672c99"
54,"Xe XXII",21,33,"Xenon","As","Ar3d104s24p3","4p3","4S°3/2","4p2 3P0",0.65,0.004,"L8672c99"
54,"Xe XXIII",22,32,"Xenon","Ge","Ar3d104s24p2","4p2","3P0","4p 2P°1/2",0.7,0.004,"L8672c99"
54,"Xe XXIV",23,31,"Xenon","Ga","Ar3d104s24p","4p","2P°1/2","4s2 1S0",0.736,0.004,"L8672c99"
54,"Xe XXV",24,30,"Xenon","Zn","Ar3d104s2","4s2","1S0","4s 2S1/2",0.818,0.004,"L8672c99"
54,"Xe XXVI",25,29,"Xenon","Cu","Ar3d104s","3d104s","2S1/2","3d10 1S0",0.857,4e-04,"L10107"
54,"Xe XXVII",26,28,"Xenon","Ni","Ar3d10","3p63d10","1S0","3d9 2D5/2",1.493,0.004,"L8672c99"
54,"Xe XXVIII",27,27,"Xenon","Co","Ar3d9","3p63d9","2D5/2","3d8 3F4",1.571,0.004,"L8672c99"
54,"Xe XXIX",28,26,"Xenon","Fe","Ar3d8","3p63d43/23d45/2","0,44","3d7 4F9/2",1.653,0.004,"L8672c99"
54,"Xe XXX",29,25,"Xenon","Mn","Ar3d7","3d7","4F9/2","3d6 5D4",1.742,0.004,"L8672c99"
54,"Xe XXXI",30,24,"Xenon","Cr","Ar3d6","3d6","5D4","3d5 6S5/2",1.826,0.004,"L8672c99"
54,"Xe XXXII",31,23,"Xenon","V","Ar3d5","3d5","6S5/2","3d4 5D0",1.919,0.004,"L8672c99"
54,"Xe XXXIII",32,22,"Xenon","Ti","Ar3d4","3d4","5D0","3d3 4F3/2",2.023,0.004,"L8672c99"
54,"Xe XXXIV",33,21,"Xenon","Sc","Ar3d3","3d3","4F3/2","3d2 3F2",2.113,0.005,"L8672c99"
54,"Xe XXXV",34,20,"Xenon","Ca","Ar3d2","3d2","3F2","3d 2D3/2",2.209,0.005,"L8672c99"
54,"Xe XXXVI",35,19,"Xenon","K","Ar3d","3d","2D3/2","3p6 1S0",2.3,0.005,"L8672c99"
54,"Xe XXXVII",36,18,"Xenon","Ar","Ne3s23p6","3p6","1S0","3p5 2P°3/2",2.556,0.005,"L8672c99"
54,"Xe XXXVIII",37,17,"Xenon","Cl","Ne3s23p5","3p5","2P°3/2","3p4 3P2",2.637,0.004,"L8672c99"
54,"Xe XXXIX",38,16,"Xenon","S","Ne3s23p4","3p4","3P2","3p3 4S°3/2",2.726,0.004,"L8672c99"
54,"Xe XL",39,15,"Xenon","P","Ne3s23p3","3p3","4S°3/2","3p2 3P0",2.811,0.004,"L8672c99"
54,"Xe XLI",40,14,"Xenon","Si","Ne3s23p2","3p2","3P0","3p 2P°1/2",2.975,0.004,"L8672c99"
54,"Xe XLII",41,13,"Xenon","Al","Ne3s23p","3p","2P°1/2","3s2 1S0",3.068,0.004,"L8672c99"
54,"Xe XLIII",42,12,"Xenon","Mg","Ne3s2","3s2","1S0","3s 2S1/2",3.243,0.004,"L8672c99"
54,"Xe XLIV",43,11,"Xenon","Na","Ne3s","3s","2S1/2","2p6 1S0",3.3338,5e-04,"L10264c99"
54,"Xe XLV",44,10,"Xenon","Ne","1s22s22p6","2p6","1S0","2p5 2P°3/2",7.66,0.004,"L8672c99"
54,"Xe XLVI",45,9,"Xenon","F","1s22s22p5","2p5","2P°3/2","2p4 3P2",7.889,0.004,"L8672c99"
54,"Xe XLVII",46,8,"Xenon","O","1s22s22p4","2p4","3P2","2p21/22p3/2 0,3/2°3/2",8.144,0.004,"L8672c99"
54,"Xe XLVIII",47,7,"Xenon","N","1s22s22p3","2p21/22p3/2","0,3/2°3/2","2p2 3P0",8.382,0.004,"L8672c99"
54,"Xe XLIX",48,6,"Xenon","C","1s22s22p2","2p2","3P0","2p 2P°1/2",8.971,0.004,"L8672c99"
54,"Xe L",49,5,"Xenon","B","1s22s22p","2p","2P°1/2","2s2 1S0",9.243,0.004,"L8672c99"
54,"Xe LI",50,4,"Xenon","Be","1s22s2","2s2","1S0","2s 2S1/2",9.581,0.004,"L8672c99"
54,"Xe LII",51,3,"Xenon","Li","1s22s","2s","2S1/2","1s2 1S0",9.81037,4e-05,"L16264c99"
54,"Xe LIII",52,2,"Xenon","He","1s2","1s2","1S0","1s 2S1/2",40.271724,1.6e-05,"L12128"
54,"Xe LIV",53,1,"Xenon","H","1s","1s","2S1/2",NA,41.29971,7e-05,"L7188"
55,"Cs I",0,55,"Cesium","Cs","Xe6s","5p66s","2S1/2","5s25p6 1S0",0.00389390572743,1.7e-13,"L19479"
55,"Cs II",1,54,"Cesium","Xe","Cd5p6","5p6","1S0","5s25p5 2P°3/2",0.02315745,6e-08,"L6838"
55,"Cs III",2,53,"Cesium","I","Cd5p5","5s25p5","2P°3/2","5s25p4 3P2",0.033195,4e-06,"L14869"
55,"Cs IV",3,52,"Cesium","Te","Cd5p4","5s25p4","3P2","5s25p3 4S°3/2",0.043,0.0017,"L8672c99"
55,"Cs V",4,51,"Cesium","Sb","Cd5p3","5s25p3","4S°3/2","5s25p2 3P0",0.056,0.0019,"L8672c99"
55,"Cs VI",5,50,"Cesium","Sn","Cd5p2","5s25p2","3P0","5s25p 2P°1/2",0.0691,0.002,"L8672c99"
55,"Cs VII",6,49,"Cesium","In","Cd5p","5s25p","2P°1/2","5s2 1S0",0.0829,0.002,"L8672c99"
55,"Cs VIII",7,48,"Cesium","Cd","Kr4d105s2","5s2","1S0","5s 2S1/2",0.1101,6e-04,"L6980"
55,"Cs IX",8,47,"Cesium","Ag","Kr4d105s","4d105s","2S1/2","4d10 1S0",0.12561,9e-05,"L5438"
55,"Cs X",9,46,"Cesium","Pd","Kr4d10","4d10","1S0","4d9 2D5/2",0.2133,0.0025,"L11384c99"
55,"Cs XI",10,45,"Cesium","Rh","Kr4d9","4d9","2D5/2","4d8 3F4",0.233,0.0024,"L8672c99"
55,"Cs XII",11,44,"Cesium","Ru","Kr4d8","4d8","3F4","4d7 4F9/2",0.261,0.0025,"L8672c99"
55,"Cs XIII",12,43,"Cesium","Tc","Kr4d7","4d7","4F9/2","4d6 5D4",0.289,0.003,"L8672c99"
55,"Cs XIV",13,42,"Cesium","Mo","Kr4d6","4d6","5D4","4d5 6S5/2",0.316,0.003,"L8672c99"
55,"Cs XV",14,41,"Cesium","Nb","Kr4d5","4d5","6S5/2","4d4 5D0",0.352,0.003,"L8672c99"
55,"Cs XVI",15,40,"Cesium","Zr","Kr4d4","4d4","5D0","4d3 4F3/2",0.382,0.003,"L8672c99"
55,"Cs XVII",16,39,"Cesium","Y","Kr4d3","4d3","4F3/2","4d2 3F2",0.413,0.003,"L8672c99"
55,"Cs XVIII",17,38,"Cesium","Sr","Kr4d2","4d2","3F2","4d 2D3/2",0.445,0.003,"L8672c99"
55,"Cs XIX",18,37,"Cesium","Rb","Kr4d","4p64d","2D3/2","4p6 1S0",0.476,0.003,"L8672c99"
55,"Cs XX",19,36,"Cesium","Kr","Ar3d104s24p6","4p6","1S0","4p5 2P°3/2",0.597,0.004,"L8672c99"
55,"Cs XXI",20,35,"Cesium","Br","Ar3d104s24p5","4p5","2P°3/2","4p4 3P2",0.629,0.004,"L8672c99"
55,"Cs XXII",21,34,"Cesium","Se","Ar3d104s24p4","4p4","3P2","4p3 4S°3/2",0.666,0.004,"L8672c99"
55,"Cs XXIII",22,33,"Cesium","As","Ar3d104s24p3","4p3","4S°3/2","4p2 3P0",0.7,0.004,"L8672c99"
55,"Cs XXIV",23,32,"Cesium","Ge","Ar3d104s24p2","4p2","3P0","4p 2P°1/2",0.753,0.004,"L8672c99"
55,"Cs XXV",24,31,"Cesium","Ga","Ar3d104s24p","4p","2P°1/2","4s2 1S0",0.791,0.004,"L8672c99"
55,"Cs XXVI",25,30,"Cesium","Zn","Ar3d104s2","4s2","1S0","4s 2S1/2",0.875,0.004,"L8672c99"
55,"Cs XXVII",26,29,"Cesium","Cu","Ar3d104s","4s","2S1/2","3d10 1S0",0.9161,5e-04,"L10278"
55,"Cs XXVIII",27,28,"Cesium","Ni","Ar3d10","3p63d10","1S0","3d9 2D5/2",1.592,0.004,"L8672c99"
55,"Cs XXIX",28,27,"Cesium","Co","Ar3d9","3p63d9","2D5/2","3d8 3F4",1.672,0.004,"L8672c99"
55,"Cs XXX",29,26,"Cesium","Fe","Ar3d8","3p63d43/23d45/2","0,44","3d7 4F9/2",1.757,0.004,"L8672c99"
55,"Cs XXXI",30,25,"Cesium","Mn","Ar3d7","3d7","4F9/2","3d6 5D4",1.848,0.004,"L8672c99"
55,"Cs XXXII",31,24,"Cesium","Cr","Ar3d6","3d6","5D4","3d5 6S5/2",1.936,0.004,"L8672c99"
55,"Cs XXXIII",32,23,"Cesium","V","Ar3d5","3d5","6S5/2","3d4 5D0",2.029,0.004,"L8672c99"
55,"Cs XXXIV",33,22,"Cesium","Ti","Ar3d4","3d4","5D0","3d3 4F3/2",2.137,0.005,"L8672c99"
55,"Cs XXXV",34,21,"Cesium","Sc","Ar3d3","3d3","4F3/2","3d2 3F2",2.23,0.005,"L8672c99"