"Z","Species","CS","Occ","Element","Iso_elec","Ground_Shells","Ground_Config","Ground_Level","Ionized_Level","IE","IE_uncertainty","References"
75,"Re XXXVII",36,39,"Rhenium","Y","Kr4d3","4d3","4F3/2","4d2 3F2",1.583,0.005,"L8672c99"
75,"Re XXXVIII",37,38,"Rhenium","Sr","Kr4d2","4d2","3F2","4d 2D3/2",1.641,0.004,"L8672c99"
75,"Re XXXIX",38,37,"Rhenium","Rb","Kr4d","4d","2D3/2","4p6 1S0",1.696,0.004,"L8672c99"
75,"Re XL",39,36,"Rhenium","Kr","Ar3d104s24p6","4p6","1S0","4p5 2P°3/2",1.912,0.004,"L8672c99"
75,"Re XLI",40,35,"Rhenium","Br","Ar3d104s24p5","4p5","2P°3/2","4p4 3P2",1.966,0.004,"L8672c99"
75,"Re XLII",41,34,"Rhenium","Se","Ar3d104s24p4","4p4","3P2","4p3°3/2",2.025,0.004,"L8672c99"
75,"Re XLIII",42,33,"Rhenium","As","Ar3d104s24p3","4p3","°3/2","4p2 3P0",2.08,0.004,"L8672c99"
75,"Re XLIV",43,32,"Rhenium","Ge","Ar3d104s24p2","4p2","3P0","4p 2P°1/2",2.24,0.004,"L8672c99"
75,"Re XLV",44,31,"Rhenium","Ga","Ar3d104s24p","4p","2P°1/2","4s2 1S0",2.302,0.004,"L8672c99"
75,"Re XLVI",45,30,"Rhenium","Zn","Ar3d104s2","4s2","1S0","4s 2S1/2",2.45,0.004,"L8672c99"
75,"Re XLVII",46,29,"Rhenium","Cu","Ar3d104s","4s","2S1/2","3d10 1S0",2.5145,3e-04,"L10257"
75,"Re XLVIII",47,28,"Rhenium","Ni","Ar3d10","3d10","1S0","3d9 2D5/2",4.214,0.004,"L10191"
75,"Re XLIX",48,27,"Rhenium","Co","Ar3d9","3d9","2D5/2","3d8 3F4",4.335,0.004,"L8672c99"
75,"Re L",49,26,"Rhenium","Fe","Ar3d8","3d8","3F4","3d7 4F9/2",4.468,0.004,"L8672c99"
75,"Re LI",50,25,"Rhenium","Mn","Ar3d7","3d7","4F9/2","3d6 4",4.609,0.004,"L8672c99"
75,"Re LII",51,24,"Rhenium","Cr","Ar3d6","3d6","4","3d5 5/2",4.745,0.004,"L8672c99"
75,"Re LIII",52,23,"Rhenium","V","Ar3d5","3d5","5/2","3d4 5D0",4.877,0.004,"L8672c99"
75,"Re LIV",53,22,"Rhenium","Ti","Ar3d4","3d4","5D0","3d3 4F3/2",5.099,0.005,"L8672c99"
75,"Re LV",54,21,"Rhenium","Sc","Ar3d3","3d3","4F3/2","3d2 3F2",5.236,0.005,"L8672c99"
75,"Re LVI",55,20,"Rhenium","Ca","Ar3d2","3d2","3F2","3d 2D3/2",5.388,0.005,"L8672c99"
75,"Re LVII",56,19,"Rhenium","K","Ar3d","3d","2D3/2","3p6 1S0",5.528,0.005,"L8672c99"
75,"Re LVIII",57,18,"Rhenium","Ar","Ne3s23p6","3p6","1S0","3p5 2P°3/2",5.919,0.006,"L8672c99"
75,"Re LIX",58,17,"Rhenium","Cl","Ne3s23p5","3p5","2P°3/2","3p4 3P2",6.042,0.006,"L8672c99"
75,"Re LX",59,16,"Rhenium","S","Ne3s23p4","3p4","3P2","3p3 2P°3/2",6.176,0.007,"L8672c99"
75,"Re LXI",60,15,"Rhenium","P","Ne3s23p3","3p3","2P°3/2","3p2 3P0",6.3,0.01,"L8672c99"
75,"Re LXII",61,14,"Rhenium","Si","Ne3s23p2","3p2","3P0","3p 2P°1/2",6.81,0.012,"L8672c99"
75,"Re LXIII",62,13,"Rhenium","Al","Ne3s23p","3p","2P°1/2","3s2 1S0",6.952,0.015,"L8672c99"
75,"Re LXIV",63,12,"Rhenium","Mg","Ne3s2","3s2","1S0","3s 2S1/2",7.23,0.019,"L8672c99"
75,"Re LXV",64,11,"Rhenium","Na","Ne3s","3s","2S1/2","2p6 1S0",7.366,0.024,"L8672c99"
75,"Re LXVI",65,10,"Rhenium","Ne","1s22s22p6","2p6","1S0","2p5 2P°3/2",16.08,0.03,"L8672c99"
75,"Re LXVII",66,9,"Rhenium","F","1s22s22p5","2p5","2P°3/2","2p4 3P2",16.41,0.04,"L8672c99"
75,"Re LXVIII",67,8,"Rhenium","O","1s22s22p4","2p4","3P2","2p21/22p3/2 0,3/2°3/2",16.78,0.04,"L8672c99"
75,"Re LXIX",68,7,"Rhenium","N","1s22s22p3","2p21/22p3/2","0,3/2°3/2","2p2 3P0",17.12,0.05,"L8672c99"
75,"Re LXX",69,6,"Rhenium","C","1s22s22p2","2p2","3P0","2p 2P°1/2",19,0.05,"L8672c99"
75,"Re LXXI",70,5,"Rhenium","B","1s22s22p","2p","2P°1/2","2s2 1S0",19.42,0.06,"L8672c99"
75,"Re LXXII",71,4,"Rhenium","Be","1s22s2","2s2","1S0","2s 2S1/2",19.95,0.06,"L8672c99"
75,"Re LXXIII",72,3,"Rhenium","Li","1s22s","2s","2S1/2","1s2 1S0",20.2974,0.00021,"L16264c99"
75,"Re LXXIV",73,2,"Rhenium","He","1s2","1s2","1S0","1s 2S1/2",81.5569,0.00017,"L12128"
75,"Re LXXV",74,1,"Rhenium","H","1s","1s","2S1/2",NA,83.1623,6e-04,"L7188"
76,"Os I",0,76,"Osmium","Os","Xe4f145d66s2","5d66s2","5D4","5d66s 6D9/2",0.00843823,2e-07,"L8105"
76,"Os II",1,75,"Osmium","Re","Xe4f145d66s","5d65D6s","6D9/2","5d6 5D4",0.017,0.001,"L16139"
76,"Os III",2,74,"Osmium","W","Xe4f145d6","5d6","5D4","5d5 6S5/2",0.025,0.0016,"L8672c99"
76,"Os IV",3,73,"Osmium","Ta","Xe4f145d5","5d5","6S5/2","5d4 5D0",0.041,0.0017,"L8672c99"
76,"Os V",4,72,"Osmium","Hf","Xe4f145d4","5d4","5D0","5d3 4F3/2",0.055,0.0019,"L8672c99"
76,"Os VI",5,71,"Osmium","Lu","Xe4f145d3","5d3","4F3/2","5d2 3F2",0.0701,0.002,"L8672c99"
76,"Os VII",6,70,"Osmium","Yb","Xe4f145d2","5d2","3F2","5d 2D3/2",0.0851,0.002,"L8672c99"
76,"Os VIII",7,69,"Osmium","Tm","Xe4f145d","5d","2D3/2","4f14 1S0",0.10202,7e-05,"L4597"
76,"Os IX",8,68,"Osmium","Er","Xe4f14","4f14","1S0","4f145p5 2P°3/2",0.1687,5e-04,"L3654"
76,"Os X",9,67,"Osmium","Ho","Cd4f145p5","4f145p5","2P°3/2","4f145p4 3P2",0.19,0.01,"L582"
76,"Os XI",10,66,"Osmium","Dy","Cd4f145p4","4f145p4","3P2","4f145p3 2P°3/2",0.213,0.011,"L582"
76,"Os XII",11,65,"Osmium","Tb","Cd4f145p3","4f145p3","2P°3/2","4f145p2 3P0",0.235,0.012,"L582"
76,"Os XIII",12,64,"Osmium","Gd","Cd4f145p2","4f145p2","3P0","4f135p2 4F°7/2",0.269,0.014,"L582"
76,"Os XIV",13,63,"Osmium","Eu","Cd4f135p2","4f135p2","4F°7/2","4f135p",0.298,0.015,"L582"
76,"Os XV",14,62,"Osmium","Sm","Cd4f14","4f135p",NA,"4f135s2 2F°7/2",0.322,0.016,"L582"
76,"Os XVI",15,61,"Osmium","Pm","Cd4f13","4f135s2","2F°7/2","4f125s2 3H6",0.367,0.019,"L582"
76,"Os XVII",16,60,"Osmium","Nd","Cd4f12","4f125s2","3H6","4f125s",0.41,0.021,"L582"
76,"Os XVIII",17,59,"Osmium","Pr","Kr4d104f125s","4f125s",NA,"4f12",0.436,0.022,"L582"
76,"Os XIX",18,58,"Osmium","Ce","Kr4d104f12","4f12",NA,"4f11 4I°15/2",0.47,0.024,"L582"
76,"Os XX",19,57,"Osmium","La","Kr4d104f11","4f11","4I°15/2","4f10 5I8",0.52,0.03,"L582"
76,"Os XXI",20,56,"Osmium","Ba","Kr4d104f10","4f10","5I8","4f9 6H°15/2",0.57,0.03,"L582"
76,"Os XXII",21,55,"Osmium","Cs","Kr4d104f9","4f9","6H°15/2","4f8 7F6",0.62,0.03,"L582"
76,"Os XXIII",22,54,"Osmium","Xe","Kr4d104f8","4f8","7F6","4f7 8S°7/2",0.67,0.03,"L582"
76,"Os XXIV",23,53,"Osmium","I","Kr4d104f7","4f7","8S°7/2","4f6 7F0",0.72,0.04,"L582"
76,"Os XXV",24,52,"Osmium","Te","Kr4d104f6","4f6","7F0","4f5 6H°5/2",0.77,0.04,"L582"
76,"Os XXVI",25,51,"Osmium","Sb","Kr4d104f5","4f5","6H°5/2","4f4 5I4",0.82,0.04,"L582"
76,"Os XXVII",26,50,"Osmium","Sn","Kr4d104f4","4f4","5I4","4f3 4I°9/2",0.87,0.04,"L582"
76,"Os XXVIII",27,49,"Osmium","In","Kr4d104f3","4f3","4I°9/2","4f2 3H4",0.92,0.05,"L582"
76,"Os XXIX",28,48,"Osmium","Cd","Kr4d104f2","4f2","3H4","4f 2F°5/2",0.97,0.05,"L582"
76,"Os XXX",29,47,"Osmium","Ag","Kr4d104f","4f","2F°5/2","4d10 1S0",1.015,0.025,"L582c99"
76,"Os XXXI",30,46,"Osmium","Pd","Kr4d10","4d10","1S0","4d9 2D5/2",1.262,0.004,"L8672c99"
76,"Os XXXII",31,45,"Osmium","Rh","Kr4d9","4d9","2D5/2","4d8 3F4",1.311,0.004,"L8672c99"
76,"Os XXXIII",32,44,"Osmium","Ru","Kr4d8","4d8","3F4","4d7 4F9/2",1.364,0.004,"L8672c99"
76,"Os XXXIV",33,43,"Osmium","Tc","Kr4d7","4d7","4F9/2","4d6 5D4",1.42,0.005,"L8672c99"
76,"Os XXXV",34,42,"Osmium","Mo","Kr4d6","4d6","5D4","4d5 5/2",1.474,0.005,"L8672c99"
76,"Os XXXVI",35,41,"Osmium","Nb","Kr4d5","4d5","5/2","4d4 5D0",1.528,0.005,"L8672c99"
76,"Os XXXVII",36,40,"Osmium","Zr","Kr4d4","4d4","5D0","4d3 4F3/2",1.606,0.005,"L8672c99"
76,"Os XXXVIII",37,39,"Osmium","Y","Kr4d3","4d3","4F3/2","4d2 3F2",1.66,0.004,"L8672c99"
76,"Os XXXIX",38,38,"Osmium","Sr","Kr4d2","4d2","3F2","4d 2D3/2",1.72,0.004,"L8672c99"
76,"Os XL",39,37,"Osmium","Rb","Kr4d","4d","2D3/2","4p6 1S0",1.776,0.004,"L8672c99"
76,"Os XLI",40,36,"Osmium","Kr","Ar3d104s24p6","4p6","1S0","4p5 2P°3/2",1.996,0.004,"L8672c99"
76,"Os XLII",41,35,"Osmium","Br","Ar3d104s24p5","4p5","2P°3/2","4p4 3P2",2.052,0.004,"L8672c99"
76,"Os XLIII",42,34,"Osmium","Se","Ar3d104s24p4","4p4","3P2","4p3°3/2",2.112,0.004,"L8672c99"
76,"Os XLIV",43,33,"Osmium","As","Ar3d104s24p3","4p3","°3/2","4p2 3P0",2.168,0.004,"L8672c99"
76,"Os XLV",44,32,"Osmium","Ge","Ar3d104s24p2","4p2","3P0","4p 2P°1/2",2.336,0.004,"L8672c99"
76,"Os XLVI",45,31,"Osmium","Ga","Ar3d104s24p","4p","2P°1/2","4s2 1S0",2.4,0.004,"L8672c99"
76,"Os XLVII",46,30,"Osmium","Zn","Ar3d104s2","4s2","1S0","4s 2S1/2",2.552,0.004,"L8672c99"
76,"Os XLVIII",47,29,"Osmium","Cu","Ar3d104s","4s","2S1/2","3d10 1S0",2.6155,0.0014,"L10278"
76,"Os XLIX",48,28,"Osmium","Ni","Ar3d10","3d10","1S0","3d9 2D5/2",4.374,0.004,"L8672c99"
76,"Os L",49,27,"Osmium","Co","Ar3d9","3d9","2D5/2","3d8 3F4",4.501,0.004,"L8672c99"
76,"Os LI",50,26,"Osmium","Fe","Ar3d8","3d8","3F4","3d7 4F9/2",4.635,0.004,"L8672c99"
76,"Os LII",51,25,"Osmium","Mn","Ar3d7","3d7","4F9/2","3d6 4",4.779,0.004,"L8672c99"
76,"Os LIII",52,24,"Osmium","Cr","Ar3d6","3d6","4","3d5 5/2",4.917,0.004,"L8672c99"
76,"Os LIV",53,23,"Osmium","V","Ar3d5","3d5","5/2","3d4 5D0",5.052,0.005,"L8672c99"
76,"Os LV",54,22,"Osmium","Ti","Ar3d4","3d4","5D0","3d3 4F3/2",5.28,0.005,"L8672c99"
76,"Os LVI",55,21,"Osmium","Sc","Ar3d3","3d3","4F3/2","3d2 3F2",5.421,0.005,"L8672c99"
76,"Os LVII",56,20,"Osmium","Ca","Ar3d2","3d2","3F2","3d 2D3/2",5.575,0.005,"L8672c99"
76,"Os LVIII",57,19,"Osmium","K","Ar3d","3d","2D3/2","3p6 1S0",5.717,0.006,"L8672c99"
76,"Os LIX",58,18,"Osmium","Ar","Ne3s23p6","3p6","1S0","3p5 2P°3/2",6.115,0.006,"L8672c99"
76,"Os LX",59,17,"Osmium","Cl","Ne3s23p5","3p5","2P°3/2","3p4 3P2",6.24,0.007,"L8672c99"
76,"Os LXI",60,16,"Osmium","S","Ne3s23p4","3p4","3P2","3p3 2P°3/2",6.376,0.01,"L8672c99"
76,"Os LXII",61,15,"Osmium","P","Ne3s23p3","3p3","2P°3/2","3p2 3P0",6.503,0.012,"L8672c99"
76,"Os LXIII",62,14,"Osmium","Si","Ne3s23p2","3p2","3P0","3p 2P°1/2",7.039,0.015,"L8672c99"
76,"Os LXIV",63,13,"Osmium","Al","Ne3s23p","3p","2P°1/2","3s2 1S0",7.185,0.019,"L8672c99"
76,"Os LXV",64,12,"Osmium","Mg","Ne3s2","3s2","1S0","3s 2S1/2",7.468,0.024,"L8672c99"
76,"Os LXVI",65,11,"Osmium","Na","Ne3s","3s","2S1/2","2p6 1S0",7.61,0.03,"L8672c99"
76,"Os LXVII",66,10,"Osmium","Ne","1s22s22p6","2p6","1S0","2p5 2P°3/2",16.56,0.04,"L8672c99"
76,"Os LXVIII",67,9,"Osmium","F","1s22s22p5","2p5","2P°3/2","2p4 3P2",16.9,0.04,"L8672c99"
76,"Os LXIX",68,8,"Osmium","O","1s22s22p4","2p4","3P2","2p21/22p3/2 0,3/2°3/2",17.27,0.05,"L8672c99"
76,"Os LXX",69,7,"Osmium","N","1s22s22p3","2p21/22p3/2","0,3/2°3/2","2p2 3P0",17.62,0.05,"L8672c99"
76,"Os LXXI",70,6,"Osmium","C","1s22s22p2","2p2","3P0","2p 2P°1/2",19.6,0.06,"L8672c99"
76,"Os LXXII",71,5,"Osmium","B","1s22s22p","2p","2P°1/2","2s2 1S0",20.03,0.06,"L8672c99"
76,"Os LXXIII",72,4,"Osmium","Be","1s22s2","2s2","1S0","2s 2S1/2",20.57,0.07,"L8672c99"
76,"Os LXXIV",73,3,"Osmium","Li","1s22s","2s","2S1/2","1s2 1S0",20.9206,0.00022,"L16264c99"
76,"Os LXXV",74,2,"Osmium","He","1s2","1s2","1S0","1s 2S1/2",83.97621,0.00012,"L12128"
76,"Os LXXVI",75,1,"Osmium","H","1s","1s","2S1/2",NA,85.6144,6e-04,"L7188"
77,"Ir I",0,77,"Iridium","Ir","Xe4f145d76s2","5d76s2","4F9/2","5d76s 5F5",0.00896702,2.2e-07,"L8105"
77,"Ir II",1,76,"Iridium","Os","Xe4f145d76s","5d74F6s","5F5","5d7 4F9/2",0.017,3e-04,"L16139"
77,"Ir III",2,75,"Iridium","Re","Xe4f145d7","5d7","4F9/2","5d6 5D4",0.028,0.0016,"L8672c99"
77,"Ir IV",3,74,"Iridium","W","Xe4f145d6","5d6","5D4","5d5 6S5/2",0.04,0.0017,"L8672c99"
77,"Ir V",4,73,"Iridium","Ta","Xe4f145d5","5d5","6S5/2","5d4 5D0",0.057,0.0019,"L8672c99"
77,"Ir VI",5,72,"Iridium","Hf","Xe4f145d4","5d4","5D0","5d3 4F3/2",0.072,0.002,"L8672c99"
77,"Ir VII",6,71,"Iridium","Lu","Xe4f145d3","5d3","4F3/2","5d2 3F2",0.089,0.002,"L8672c99"
77,"Ir VIII",7,70,"Iridium","Yb","Xe4f145d2","5d2","3F2","5d 2D3/2",0.105,0.0021,"L8672c99"
77,"Ir IX",8,69,"Iridium","Tm","Xe4f145d","5d","2D3/2","4f14 1S0",0.1227,9e-04,"L3654"
77,"Ir X",9,68,"Iridium","Er","Xe4f14","4f14","1S0","4f145p5 2P°3/2",0.1948,6e-04,"L3654"
77,"Ir XI",10,67,"Iridium","Ho","Cd4f145p5","4f145p5","2P°3/2","4f145p4 3P2",0.217,0.011,"L582"
77,"Ir XII",11,66,"Iridium","Dy","Cd4f145p4","4f145p4","3P2","4f145p3 2P°3/2",0.24,0.012,"L582"
77,"Ir XIII",12,65,"Iridium","Tb","Cd4f145p3","4f145p3","2P°3/2","4f145p2 3P0",0.264,0.014,"L582"
77,"Ir XIV",13,64,"Iridium","Gd","Cd4f145p2","4f145p2","3P0","4f145p 2P°1/2",0.303,0.015,"L582"
77,"Ir XV",14,63,"Iridium","Eu","Cd4f145p","4f145p","2P°1/2","4f14 1S0",0.329,0.016,"L582"
77,"Ir XVI",15,62,"Iridium","Sm","Cd4f14","4f14","1S0","4f135s2 2F°7/2",0.356,0.017,"L582"
77,"Ir XVII",16,61,"Iridium","Pm","Cd4f13","4f135s2","2F°7/2","4f125s2 3H6",0.407,0.02,"L582"
77,"Ir XVIII",17,60,"Iridium","Nd","Cd4f12","4f125s2","3H6","4f125s",0.445,0.022,"L582"
77,"Ir XIX",18,59,"Iridium","Pr","Kr4d104f125s","4f125s",NA,"4f12",0.472,0.024,"L582"
77,"Ir XX",19,58,"Iridium","Ce","Kr4d104f12","4f12",NA,"4f11 4I°15/2",0.51,0.03,"L582"
77,"Ir XXI",20,57,"Iridium","La","Kr4d104f11","4f11","4I°15/2","4f10 5I8",0.56,0.03,"L582"
77,"Ir XXII",21,56,"Iridium","Ba","Kr4d104f10","4f10","5I8","4f9 6H°15/2",0.61,0.03,"L582"
77,"Ir XXIII",22,55,"Iridium","Cs","Kr4d104f9","4f9","6H°15/2","4f8 7F6",0.67,0.03,"L582"
77,"Ir XXIV",23,54,"Iridium","Xe","Kr4d104f8","4f8","7F6","4f7 8S°7/2",0.72,0.04,"L582"
77,"Ir XXV",24,53,"Iridium","I","Kr4d104f7","4f7","8S°7/2","4f6 7F0",0.77,0.04,"L582"
77,"Ir XXVI",25,52,"Iridium","Te","Kr4d104f6","4f6","7F0","4f5 6H°5/2",0.82,0.04,"L582"
77,"Ir XXVII",26,51,"Iridium","Sb","Kr4d104f5","4f5","6H°5/2","4f4 5I4",0.87,0.04,"L582"
77,"Ir XXVIII",27,50,"Iridium","Sn","Kr4d104f4","4f4","5I4","4f3 4I°9/2",0.92,0.05,"L582"
77,"Ir XXIX",28,49,"Iridium","In","Kr4d104f3","4f3","4I°9/2","4f2 3H4",0.98,0.05,"L582"
77,"Ir XXX",29,48,"Iridium","Cd","Kr4d104f2","4f2","3H4","4f 2F°5/2",1.03,0.05,"L582"
77,"Ir XXXI",30,47,"Iridium","Ag","Kr4d104f","4f","2F°5/2","4d10 1S0",1.08,0.05,"L582"
77,"Ir XXXII",31,46,"Iridium","Pd","Kr4d10","4d10","1S0","4d9 2D5/2",1.331,0.004,"L8672c99"
77,"Ir XXXIII",32,45,"Iridium","Rh","Kr4d9","4d9","2D5/2","4d8 3F4",1.381,0.004,"L8672c99"
77,"Ir XXXIV",33,44,"Iridium","Ru","Kr4d8","4d8","3F4","4d7 4F9/2",1.436,0.005,"L8672c99"
77,"Ir XXXV",34,43,"Iridium","Tc","Kr4d7","4d7","4F9/2","4d6 5D4",1.493,0.005,"L8672c99"
77,"Ir XXXVI",35,42,"Iridium","Mo","Kr4d6","4d6","5D4","4d5 5/2",1.548,0.005,"L8672c99"
77,"Ir XXXVII",36,41,"Iridium","Nb","Kr4d5","4d5","5/2","4d4 5D0",1.603,0.005,"L8672c99"
77,"Ir XXXVIII",37,40,"Iridium","Zr","Kr4d4","4d4","5D0","4d3 4F3/2",1.684,0.004,"L8672c99"
77,"Ir XXXIX",38,39,"Iridium","Y","Kr4d3","4d3","4F3/2","4d2 3F2",1.739,0.004,"L8672c99"
77,"Ir XL",39,38,"Iridium","Sr","Kr4d2","4d2","3F2","4d 2D3/2",1.801,0.004,"L8672c99"
77,"Ir XLI",40,37,"Iridium","Rb","Kr4d","4d","2D3/2","4p6 1S0",1.857,0.004,"L8672c99"
77,"Ir XLII",41,36,"Iridium","Kr","Ar3d104s24p6","4p6","1S0","4p5 2P°3/2",2.083,0.004,"L8672c99"
77,"Ir XLIII",42,35,"Iridium","Br","Ar3d104s24p5","4p5","2P°3/2","4p4 3P2",2.139,0.004,"L8672c99"
77,"Ir XLIV",43,34,"Iridium","Se","Ar3d104s24p4","4p4","3P2","4p3°3/2",2.201,0.004,"L8672c99"
77,"Ir XLV",44,33,"Iridium","As","Ar3d104s24p3","4p3","°3/2","4p2 3P0",2.258,0.004,"L8672c99"
77,"Ir XLVI",45,32,"Iridium","Ge","Ar3d104s24p2","4p2","3P0","4p 2P°1/2",2.435,0.004,"L8672c99"
77,"Ir XLVII",46,31,"Iridium","Ga","Ar3d104s24p","4p","2P°1/2","4s2 1S0",2.5,0.004,"L8672c99"
77,"Ir XLVIII",47,30,"Iridium","Zn","Ar3d104s2","4s2","1S0","4s 2S1/2",2.656,0.004,"L8672c99"
77,"Ir XLIX",48,29,"Iridium","Cu","Ar3d104s","4s","2S1/2","3d10 1S0",2.7204,0.0014,"L10278"
77,"Ir L",49,28,"Iridium","Ni","Ar3d10","3d10","1S0","3d9 2D5/2",4.54,0.004,"L8672c99"
77,"Ir LI",50,27,"Iridium","Co","Ar3d9","3d9","2D5/2","3d8 3F4",4.668,0.004,"L8672c99"
77,"Ir LII",51,26,"Iridium","Fe","Ar3d8","3d8","3F4","3d7 4F9/2",4.806,0.004,"L8672c99"
77,"Ir LIII",52,25,"Iridium","Mn","Ar3d7","3d7","4F9/2","3d6 4",4.952,0.004,"L8672c99"
77,"Ir LIV",53,24,"Iridium","Cr","Ar3d6","3d6","4","3d5 5/2",5.092,0.005,"L8672c99"
77,"Ir LV",54,23,"Iridium","V","Ar3d5","3d5","5/2","3d4 5D0",5.229,0.005,"L8672c99"
77,"Ir LVI",55,22,"Iridium","Ti","Ar3d4","3d4","5D0","3d3 4F3/2",5.466,0.005,"L8672c99"
77,"Ir LVII",56,21,"Iridium","Sc","Ar3d3","3d3","4F3/2","3d2 3F2",5.609,0.005,"L8672c99"
77,"Ir LVIII",57,20,"Iridium","Ca","Ar3d2","3d2","3F2","3d 2D3/2",5.765,0.006,"L8672c99"
77,"Ir LIX",58,19,"Iridium","K","Ar3d","3d","2D3/2","3p6 1S0",5.91,0.006,"L8672c99"
77,"Ir LX",59,18,"Iridium","Ar","Ne3s23p6","3p6","1S0","3p5 2P°3/2",6.315,0.007,"L8672c99"
77,"Ir LXI",60,17,"Iridium","Cl","Ne3s23p5","3p5","2P°3/2","3p4 3P2",6.441,0.01,"L8672c99"
77,"Ir LXII",61,16,"Iridium","S","Ne3s23p4","3p4","3P2","3p3 2P°3/2",6.58,0.012,"L8672c99"
77,"Ir LXIII",62,15,"Iridium","P","Ne3s23p3","3p3","2P°3/2","3p2 3P0",6.708,0.015,"L8672c99"
77,"Ir LXIV",63,14,"Iridium","Si","Ne3s23p2","3p2","3P0","3p 2P°1/2",7.274,0.019,"L8672c99"
77,"Ir LXV",64,13,"Iridium","Al","Ne3s23p","3p","2P°1/2","3s2 1S0",7.421,0.024,"L8672c99"
77,"Ir LXVI",65,12,"Iridium","Mg","Ne3s2","3s2","1S0","3s 2S1/2",7.71,0.03,"L8672c99"
77,"Ir LXVII",66,11,"Iridium","Na","Ne3s","3s","2S1/2","2p6 1S0",7.85,0.04,"L8672c99"
77,"Ir LXVIII",67,10,"Iridium","Ne","1s22s22p6","2p6","1S0","2p5 2P°3/2",17.04,0.04,"L8672c99"
77,"Ir LXIX",68,9,"Iridium","F","1s22s22p5","2p5","2P°3/2","2p4 3P2",17.39,0.05,"L8672c99"
77,"Ir LXX",69,8,"Iridium","O","1s22s22p4","2p4","3P2","2p21/22p3/2 0,3/2°3/2",17.77,0.05,"L8672c99"
77,"Ir LXXI",70,7,"Iridium","N","1s22s22p3","2p21/22p3/2","0,3/2°3/2","2p2 3P0",18.12,0.06,"L8672c99"
77,"Ir LXXII",71,6,"Iridium","C","1s22s22p2","2p2","3P0","2p 2P°1/2",20.21,0.06,"L8672c99"
77,"Ir LXXIII",72,5,"Iridium","B","1s22s22p","2p","2P°1/2","2s2 1S0",20.65,0.07,"L8672c99"
77,"Ir LXXIV",73,4,"Iridium","Be","1s22s2","2s2","1S0","2s 2S1/2",21.2,0.09,"L8672c99"
77,"Ir LXXV",74,3,"Iridium","Li","1s22s","2s","2S1/2","1s2 1S0",21.5566,0.00024,"L16264c99"
77,"Ir LXXVI",75,2,"Iridium","He","1s2","1s2","1S0","1s 2S1/2",86.4389,5e-04,"L10054"
77,"Ir LXXVII",76,1,"Iridium","H","1s","1s","2S1/2",NA,88.1133,6e-04,"L7188"
78,"Pt I",0,78,"Platinum","Pt","Xe4f145d96s","5d96s","3D3","5d9 2D5/2",0.00895883,1e-07,"L9735,L11689"
78,"Pt II",1,77,"Platinum","Ir","Xe4f145d9","5d9","2D5/2","5d8 3F4",0.01856,0.00012,"L3466,L3539"
78,"Pt III",2,76,"Platinum","Os","Xe4f145d8","5d8","3F4","5d7 4F9/2",0.029,0.0016,"L8672c99"
78,"Pt IV",3,75,"Platinum","Re","Xe4f145d7","5d7","4F9/2","5d6 5D4",0.043,0.0017,"L8672c99"
78,"Pt V",4,74,"Platinum","W","Xe4f145d6","5d6","5D4","5d5 6S5/2",0.056,0.0019,"L8672c99"
78,"Pt VI",5,73,"Platinum","Ta","Xe4f145d5","5d5","6S5/2","5d4 5D0",0.075,0.002,"L8672c99"
78,"Pt VII",6,72,"Platinum","Hf","Xe4f145d4","5d4","5D0","5d3 4F3/2",0.091,0.002,"L8672c99"
78,"Pt VIII",7,71,"Platinum","Lu","Xe4f145d3","5d3","4F3/2","5d2 3F2",0.109,0.0021,"L8672c99"
78,"Pt IX",8,70,"Platinum","Yb","Xe4f145d2","5d2","3F2","5d 2D3/2",0.126,0.0022,"L8672c99"
78,"Pt X",9,69,"Platinum","Tm","Xe4f145d","5d","2D3/2","4f14 1S0",0.1449,0.0011,"L3654"
78,"Pt XI",10,68,"Platinum","Er","Xe4f14","4f14","1S0","4f145p5 2P°3/2",0.2204,9e-04,"L3654"
78,"Pt XII",11,67,"Platinum","Ho","Cd4f145p5","4f145p5","2P°3/2","4f145p4 3P2",0.245,0.012,"L582"
78,"Pt XIII",12,66,"Platinum","Dy","Cd4f145p4","4f145p4","3P2","4f145p3 2P°3/2",0.269,0.014,"L582"
78,"Pt XIV",13,65,"Platinum","Tb","Cd4f145p3","4f145p3","2P°3/2","4f145p2 3P0",0.293,0.015,"L582"
78,"Pt XV",14,64,"Platinum","Gd","Cd4f145p2","4f145p2","3P0","4f145p 2P°1/2",0.332,0.016,"L582"
78,"Pt XVI",15,63,"Platinum","Eu","Cd4f145p","4f145p","2P°1/2","4f14 1S0",0.358,0.017,"L582"
78,"Pt XVII",16,62,"Platinum","Sm","Cd4f14","4f14","1S0","4f135s2 2F°7/2",0.392,0.02,"L582"
78,"Pt XVIII",17,61,"Platinum","Pm","Cd4f13","4f135s2","2F°7/2","4f125s2 3H6",0.445,0.022,"L582"
78,"Pt XIX",18,60,"Platinum","Nd","Cd4f12","4f125s2","3H6","4f125s",0.479,0.024,"L582"
78,"Pt XX",19,59,"Platinum","Pr","Kr4d104f125s","4f125s",NA,"4f12",0.507,0.025,"L582"
78,"Pt XXI",20,58,"Platinum","Ce","Kr4d104f12","4f12",NA,"4f11 4I°15/2",0.55,0.03,"L582"
78,"Pt XXII",21,57,"Platinum","La","Kr4d104f11","4f11","4I°15/2","4f10 5I8",0.61,0.03,"L582"
78,"Pt XXIII",22,56,"Platinum","Ba","Kr4d104f10","4f10","5I8","4f9 6H°15/2",0.66,0.03,"L582"
78,"Pt XXIV",23,55,"Platinum","Cs","Kr4d104f9","4f9","6H°15/2","4f8 7F6",0.71,0.04,"L582"
78,"Pt XXV",24,54,"Platinum","Xe","Kr4d104f8","4f8","7F6","4f7 8S°7/2",0.76,0.04,"L582"
78,"Pt XXVI",25,53,"Platinum","I","Kr4d104f7","4f7","8S°7/2","4f6 7F0",0.82,0.04,"L582"
78,"Pt XXVII",26,52,"Platinum","Te","Kr4d104f6","4f6","7F0","4f5 6H°5/2",0.87,0.04,"L582"