"Z","Species","CS","Occ","Element","Iso_elec","Ground_Shells","Ground_Config","Ground_Level","Ionized_Level","IE","IE_uncertainty","References"
29,"Cu XXIX",28,1,"Copper","H","1s","1s","2S1/2",NA,11.567613,4e-06,"L7188"
30,"Zn I",0,30,"Zinc","Zn","Ar3d104s2","3d104s2","1S0","4s 2S1/2",0.009394197,6e-09,"L13951"
30,"Zn II",1,29,"Zinc","Cu","Ar3d104s","3d104s","2S1/2","3d10 1S0",0.01796439,2.5e-07,"L9171,L640"
30,"Zn III",2,28,"Zinc","Ni","Ar3d10","3d10","1S0","3d9 2D5/2",0.0397233,1.2e-07,"L9171,L65"
30,"Zn IV",3,27,"Zinc","Co","Ar3d9","3p63d9","2D5/2","3d8 3F4",0.059573,1.9e-05,"L9171,L6389"
30,"Zn V",4,26,"Zinc","Fe","Ar3d8","3p63d8","3F4","3d7 4F9/2",0.0826,9e-04,"L9171,L241"
30,"Zn VI",5,25,"Zinc","Mn","Ar3d7","3p63d7","4F9/2","3d6 5D4",0.108,0.001,"L9171,L241"
30,"Zn VII",6,24,"Zinc","Cr","Ar3d6","3d6","5D4","3d5 6S5/2",0.1339,0.0012,"L9171,L241"
30,"Zn VIII",7,23,"Zinc","V","Ar3d5","3d5","6S5/2","3d4 5D0",0.1739,0.0017,"L9171,L241c99"
30,"Zn IX",8,22,"Zinc","Ti","Ar3d4","3d4","5D0","3d3 4F3/2",0.203,0.002,"L9171,L241"
30,"Zn X",9,21,"Zinc","Sc","Ar3d3","3d3","4F3/2","3d2 3F2",0.238,0.0022,"L8672c99"
30,"Zn XI",10,20,"Zinc","Ca","Ar3d2","3p63d2","3F2","3d 2D3/2",0.2744,5e-04,"L241c99"
30,"Zn XII",11,19,"Zinc","K","Ar3d","3p63d","2D3/2","3p6 1S0",0.3108,0.001,"L9171"
30,"Zn XIII",12,18,"Zinc","Ar","Ne3s23p6","3s23p6","1S0","3p5 2P°3/2",0.4176,0.0012,"L11770"
30,"Zn XIV",13,17,"Zinc","Cl","Ne3s23p5","3s23p5","2P°3/2","3p4 3P2",0.4534,3e-04,"L11770"
30,"Zn XV",14,16,"Zinc","S","Ne3s23p4","3s23p4","3P2","3p3 4S°3/2",0.4906,6e-04,"L11770"
30,"Zn XVI",15,15,"Zinc","P","Ne3s23p3","3s23p3","4S°3/2","3p2 3P0",0.54,0.001,"L11770"
30,"Zn XVII",16,14,"Zinc","Si","Ne3s23p2","3s23p2","3P0","3p 2P°1/2",0.5778,0.0013,"L11770"
30,"Zn XVIII",17,13,"Zinc","Al","Ne3s23p","3s23p","2P°1/2","3s2 1S0",0.6133,0.0024,"L11770"
30,"Zn XIX",18,12,"Zinc","Mg","Ne3s2","2p63s2","1S0","3s 2S1/2",0.6975,7e-04,"L11770"
30,"Zn XX",19,11,"Zinc","Na","Ne3s","2p63s","2S1/2","2p6 1S0",0.737366,2.1e-05,"L11770"
30,"Zn XXI",20,10,"Zinc","Ne","1s22s22p6","2s22p6","1S0","2p5 2P°3/2",1.8468,0.001,"L11770"
30,"Zn XXII",21,9,"Zinc","F","1s22s22p5","2s22p5","2P°3/2","2p4 3P2",1.961,0.003,"L11770"
30,"Zn XXIII",22,8,"Zinc","O","1s22s22p4","2s22p4","3P2","2p3 4S°3/2",2.085,0.005,"L11770"
30,"Zn XXIV",23,7,"Zinc","N","1s22s22p3","2s22p3","4S°3/2","2p2 3P0",2.214,0.008,"L11770"
30,"Zn XXV",24,6,"Zinc","C","1s22s22p2","2s22p2","3P0","2p 2P°1/2",2.358,0.0016,"L11770"
30,"Zn XXVI",25,5,"Zinc","B","1s22s22p","2p","2P°1/2","2s2 1S0",2.4915,0.0011,"L11770"
30,"Zn XXVII",26,4,"Zinc","Be","1s22s2","1s22s2","1S0","2s 2S1/2",2.6699,0.0025,"L11770"
30,"Zn XXVIII",27,3,"Zinc","Li","1s22s","1s22s","2S1/2","1s2 1S0",2.781996,7e-06,"L16264c99"
30,"Zn XXIX",28,2,"Zinc","He","1s2","1s2","1S0","1s 2S1/2",11.8649399,1.9e-06,"L12128"
30,"Zn XXX",29,1,"Zinc","H","1s","1s","2S1/2",NA,12.388929,5e-06,"L7188"
31,"Ga I",0,31,"Gallium","Ga","Ar3d104s24p","3d104s24p","2P°1/2","4s2 1S0",0.005999302,1.2e-09,"L5566"
31,"Ga II",1,30,"Gallium","Zn","Ar3d104s2","3d104s2","1S0","4s 2S1/2",0.02051514,1.2e-07,"L6473"
31,"Ga III",2,29,"Gallium","Cu","Ar3d104s","3d104s","2S1/2","3d10 1S0",0.03072576,2.5e-07,"L6636"
31,"Ga IV",3,28,"Gallium","Ni","Ar3d10","3d10","1S0","3d9 2D5/2",0.063241,9e-06,"L12180,L17779"
31,"Ga V",4,27,"Gallium","Co","Ar3d9","3d9","2D5/2","3d8 3F4",0.08601,0.00012,"L12180"
31,"Ga VI",5,26,"Gallium","Fe","Ar3d8","3d8","3F4","3d7 4F9/2",0.1127,0.0011,"L12180"
31,"Ga VII",6,25,"Gallium","Mn","Ar3d7","3d7","4F9/2","3d6 5D4",0.1408,0.0014,"L12180"
31,"Ga VIII",7,24,"Gallium","Cr","Ar3d6","3d6","5D4","3d5 6S5/2",0.1699,0.0017,"L12180"
31,"Ga IX",8,23,"Gallium","V","Ar3d5","3d5","6S5/2","3d4 5D0",0.211,0.0022,"L8672c99"
31,"Ga X",9,22,"Gallium","Ti","Ar3d4","3d4","5D0","3d3 4F3/2",0.244,0.0025,"L12180"
31,"Ga XI",10,21,"Gallium","Sc","Ar3d3","3d3","4F3/2","3d2 3F2",0.28,0.0024,"L8672c99"
31,"Ga XII",11,20,"Gallium","Ca","Ar3d2","3d2","3F2","3d 2D3/2",0.319,0.0025,"L8672c99"
31,"Ga XIII",12,19,"Gallium","K","Ar3d","3p63d","2D3/2","3p6 1S0",0.356,0.003,"L8672c99"
31,"Ga XIV",13,18,"Gallium","Ar","Ne3s23p6","3p6","1S0","3p5 2P°3/2",0.4712,0.0014,"L11770"
31,"Ga XV",14,17,"Gallium","Cl","Ne3s23p5","3p5","2P°3/2","3p4 3P2",0.5088,4e-04,"L11770"
31,"Ga XVI",15,16,"Gallium","S","Ne3s23p4","3p4","3P2","3p3 4S°3/2",0.5483,7e-04,"L11770"
31,"Ga XVII",16,15,"Gallium","P","Ne3s23p3","3s23p3","4S°3/2","3p2 3P0",0.5998,0.0014,"L11770"
31,"Ga XVIII",17,14,"Gallium","Si","Ne3s23p2","3s23p2","3P0","3p 2P°1/2",0.64,0.0015,"L11770"
31,"Ga XIX",18,13,"Gallium","Al","Ne3s23p","3s23p","2P°1/2","3s2 1S0",0.677,0.003,"L11770"
31,"Ga XX",19,12,"Gallium","Mg","Ne3s2","3s2","1S0","3s 2S1/2",0.7657,9e-04,"L11770"
31,"Ga XXI",20,11,"Gallium","Na","Ne3s","2p63s","2S1/2","2p6 1S0",0.807308,2.5e-05,"L11770"
31,"Ga XXII",21,10,"Gallium","Ne","1s22s22p6","2s22p6","1S0","2p5 2P°3/2",2.01,0.0011,"L11770"
31,"Ga XXIII",22,9,"Gallium","F","1s22s22p5","2s22p5","2P°3/2","2p4 3P2",2.129,0.004,"L11770"
31,"Ga XXIV",23,8,"Gallium","O","1s22s22p4","2s22p4","3P2","2p3 4S°3/2",2.258,0.005,"L11770"
31,"Ga XXV",24,7,"Gallium","N","1s22s22p3","2s22p3","4S°3/2","2p2 3P0",2.391,0.018,"L11770"
31,"Ga XXVI",25,6,"Gallium","C","1s22s22p2","2s22p2","3P0","2p 2P°1/2",2.5439,0.002,"L11770"
31,"Ga XXVII",26,5,"Gallium","B","1s22s22p","2s22p","2P°1/2","2s2 1S0",2.683,0.0014,"L11770"
31,"Ga XXVIII",27,4,"Gallium","Be","1s22s2","2s2","1S0","2s 2S1/2",2.868,0.003,"L11770"
31,"Ga XXIX",28,3,"Gallium","Li","1s22s","1s22s","2S1/2","1s2 1S0",2.984426,7e-06,"L16264c99"
31,"Ga XXX",29,2,"Gallium","He","1s2","1s2","1S0","1s 2S1/2",12.6965575,2.1e-06,"L12128"
31,"Ga XXXI",30,1,"Gallium","H","1s","1s","2S1/2",NA,13.239489,6e-06,"L7188"
32,"Ge I",0,32,"Germanium","Ge","Ar3d104s24p2","4s24p2","3P0","4p 2P°1/2",0.007899435,1.2e-08,"L3935,L12369"
32,"Ge II",1,31,"Germanium","Ga","Ar3d104s24p","4s24p","2P°1/2","4s2 1S0",0.01593461,2.5e-08,"L7213"
32,"Ge III",2,30,"Germanium","Zn","Ar3d104s2","3d104s2","1S0","4s 2S1/2",0.0340576,1.2e-06,"L7213,L11268"
32,"Ge IV",3,29,"Germanium","Cu","Ar3d104s","3d104s","2S1/2","3d10 1S0",0.0457155,1.2e-06,"L7213,L6924"
32,"Ge V",4,28,"Germanium","Ni","Ar3d10","3d10","1S0","3d9 2D5/2",0.0905,1.9e-05,"L7213,L17779"
32,"Ge VI",5,27,"Germanium","Co","Ar3d9","3p63d9","2D5/2","3d8 3F4",0.1159,0.00012,"L7213"
32,"Ge VII",6,26,"Germanium","Fe","Ar3d8","3p63d8","3F4","3d7 4F9/2",0.1449,0.0015,"L7213"
32,"Ge VIII",7,25,"Germanium","Mn","Ar3d7","3d7","4F9/2","3d6 5D4",0.1764,0.0017,"L7213"
32,"Ge IX",8,24,"Germanium","Cr","Ar3d6","3d6","5D4","3d5 6S5/2",0.2125,0.0021,"L7213"
32,"Ge X",9,23,"Germanium","V","Ar3d5","3d5","6S5/2","3d4 5D0",0.2521,0.0022,"L8672c99"
32,"Ge XI",10,22,"Germanium","Ti","Ar3d4","3d4","5D0","3d3 4F3/2",0.286,0.003,"L7213"
32,"Ge XII",11,21,"Germanium","Sc","Ar3d3","3d3","4F3/2","3d2 3F2",0.326,0.0025,"L8672c99"
32,"Ge XIII",12,20,"Germanium","Ca","Ar3d2","3d2","3F2","3d 2D3/2",0.367,0.003,"L8672c99"
32,"Ge XIV",13,19,"Germanium","K","Ar3d","3p63d","2D3/2","3p6 1S0",0.407,0.003,"L8672c99"
32,"Ge XV",14,18,"Germanium","Ar","Ne3s23p6","3s23p6","1S0","3p5 2P°3/2",0.5279,0.0016,"L11770"
32,"Ge XVI",15,17,"Germanium","Cl","Ne3s23p5","3s23p5","2P°3/2","3p4 3P2",0.5673,5e-04,"L11770"
32,"Ge XVII",16,16,"Germanium","S","Ne3s23p4","3s23p4","3P2","3p3 4S°3/2",0.6091,8e-04,"L11770"
32,"Ge XVIII",17,15,"Germanium","P","Ne3s23p3","3s23p3","4S°3/2","3p2 3P0",0.6628,0.0019,"L11770"
32,"Ge XIX",18,14,"Germanium","Si","Ne3s23p2","3s23p2","3P0","3p 2P°1/2",0.7067,0.001,"L7213"
32,"Ge XX",19,13,"Germanium","Al","Ne3s23p","3s23p","2P°1/2","3s2 1S0",0.744,0.003,"L11770"
32,"Ge XXI",20,12,"Germanium","Mg","Ne3s2","2p63s2","1S0","3s 2S1/2",0.8371,0.001,"L11770"
32,"Ge XXII",21,11,"Germanium","Na","Ne3s","2p63s","2S1/2","2p6 1S0",0.88044,3e-05,"L11770"
32,"Ge XXIII",22,10,"Germanium","Ne","1s22s22p6","2s22p6","1S0","2p5 2P°3/2",2.1801,0.0012,"L11770"
32,"Ge XXIV",23,9,"Germanium","F","1s22s22p5","2s22p5","2P°3/2","2p4 3P2",2.304,0.004,"L11770"
32,"Ge XXV",24,8,"Germanium","O","1s22s22p4","2s22p4","3P2","2p3 4S°3/2",2.439,0.005,"L11770"
32,"Ge XXVI",25,7,"Germanium","N","1s22s22p3","2s22p3","4S°3/2","2p2 3P0",2.575,0.019,"L11770"
32,"Ge XXVII",26,6,"Germanium","C","1s22s22p2","2s22p2","3P0","2p 2P°1/2",2.7371,0.0023,"L11770"
32,"Ge XXVIII",27,5,"Germanium","B","1s22s22p","2s22p","2P°1/2","2s2 1S0",2.8819,0.0016,"L11770"
32,"Ge XXIX",28,4,"Germanium","Be","1s22s2","1s22s2","1S0","2s 2S1/2",3.074,0.003,"L11770"
32,"Ge XXX",29,3,"Germanium","Li","1s22s","1s22s","2S1/2","1s2 1S0",3.194293,7e-06,"L16264c99"
32,"Ge XXXI",30,2,"Germanium","He","1s2","1s2","1S0","1s 2S1/2",13.5574208,2.4e-06,"L12128"
32,"Ge XXXII",31,1,"Germanium","H","1s","1s","2S1/2",NA,14.11943,6e-06,"L7188"
33,"As I",0,33,"Arsenic","As","Ar3d104s24p3","4s24p3","4S°3/2","4p2 3P0",0.00978855,2.5e-07,"L1351"
33,"As II",1,32,"Arsenic","Ge","Ar3d104s24p2","4s24p2","3P0","4p 2P°1/2",0.0185892,1e-06,"L820"
33,"As III",2,31,"Arsenic","Ga","Ar3d104s24p","4s24p","2P°1/2","4s2 1S0",0.028349,1.2e-05,"L9358"
33,"As IV",3,30,"Arsenic","Zn","Ar3d104s2","3d104s2","1S0","4s 2S1/2",0.05015,6e-05,"L9358"
33,"As V",4,29,"Arsenic","Cu","Ar3d104s","3d104s","2S1/2","3d10 1S0",0.06277,6e-05,"L5339"
33,"As VI",5,28,"Arsenic","Ni","Ar3d10","3d10","1S0","3d9 2D5/2",0.12119,6e-05,"L11275"
33,"As VII",6,27,"Arsenic","Co","Ar3d9","3p63d9","2D5/2","3d8 3F4",0.147,0.002,"L8672c99"
33,"As VIII",7,26,"Arsenic","Fe","Ar3d8","3p63d8","3F4","3d7 4F9/2",0.18,0.0021,"L8672c99"
33,"As IX",8,25,"Arsenic","Mn","Ar3d7","3p63d7","4F9/2","3d6 5D4",0.213,0.0022,"L8672c99"
33,"As X",9,24,"Arsenic","Cr","Ar3d6","3d6","5D4","3d5 6S5/2",0.247,0.0022,"L8672c99"
33,"As XI",10,23,"Arsenic","V","Ar3d5","3d5","6S5/2","3d4 5D0",0.296,0.0024,"L8672c99"
33,"As XII",11,22,"Arsenic","Ti","Ar3d4","3d4","5D0","3d3 4F3/2",0.333,0.0025,"L8672c99"
33,"As XIII",12,21,"Arsenic","Sc","Ar3d3","3d3","4F3/2","3d2 3F2",0.375,0.003,"L8672c99"
33,"As XIV",13,20,"Arsenic","Ca","Ar3d2","3p63d2","3F2","3d 2D3/2",0.418,0.003,"L8672c99"
33,"As XV",14,19,"Arsenic","K","Ar3d","3p63d","2D3/2","3p6 1S0",0.46,0.003,"L8672c99"
33,"As XVI",15,18,"Arsenic","Ar","Ne3s23p6","3s23p6","1S0","3p5 2P°3/2",0.5876,0.0019,"L11770"
33,"As XVII",16,17,"Arsenic","Cl","Ne3s23p5","3s23p5","2P°3/2","3p4 3P2",0.6288,6e-04,"L11770"
33,"As XVIII",17,16,"Arsenic","S","Ne3s23p4","3s23p4","3P2","3p3 4S°3/2",0.6729,9e-04,"L11770"
33,"As XIX",18,15,"Arsenic","P","Ne3s23p3","3s23p3","4S°3/2","3p2 3P0",0.7289,0.0022,"L11770"
33,"As XX",19,14,"Arsenic","Si","Ne3s23p2","3s23p2","3P0","3p 2P°1/2",0.774,0.0018,"L11770"
33,"As XXI",20,13,"Arsenic","Al","Ne3s23p","3s23p","2P°1/2","3s2 1S0",0.814,0.004,"L11770"
33,"As XXII",21,12,"Arsenic","Mg","Ne3s2","2p63s2","1S0","3s 2S1/2",0.9117,0.0011,"L11770"
33,"As XXIII",22,11,"Arsenic","Na","Ne3s","2p63s","2S1/2","2p6 1S0",0.95679,3e-05,"L11770"
33,"As XXIV",23,10,"Arsenic","Ne","1s22s22p6","2s22p6","1S0","2p5 2P°3/2",2.3569,0.0014,"L11770"
33,"As XXV",24,9,"Arsenic","F","1s22s22p5","2s22p5","2P°3/2","2p4 3P2",2.486,0.004,"L11770"
33,"As XXVI",25,8,"Arsenic","O","1s22s22p4","2s22p4","3P2","2p3 4S°3/2",2.626,0.006,"L11770"
33,"As XXVII",26,7,"Arsenic","N","1s22s22p3","2s22p3","4S°3/2","2p2 3P0",2.766,0.021,"L11770"
33,"As XXVIII",27,6,"Arsenic","C","1s22s22p2","2s22p2","3P0","2p 2P°1/2",2.938,0.003,"L11770"
33,"As XXIX",28,5,"Arsenic","B","1s22s22p","2s22p","2P°1/2","2s2 1S0",3.0881,0.0019,"L11770"
33,"As XXX",29,4,"Arsenic","Be","1s22s2","1s22s2","1S0","2s 2S1/2",3.287,0.003,"L11770"
33,"As XXXI",30,3,"Arsenic","Li","1s22s","1s22s","2S1/2","1s2 1S0",3.411643,7e-06,"L16264c99"
33,"As XXXII",31,2,"Arsenic","He","1s2","1s2","1S0","1s 2S1/2",14.447678,3e-06,"L12128"
33,"As XXXIII",32,1,"Arsenic","H","1s","1s","2S1/2",NA,15.028907,6e-06,"L7188"
34,"Se I",0,34,"Selenium","Se","Ar3d104s24p4","4s24p4","3P2","4p3 4S°3/2",0.009752392,1.5e-08,"L2647,L4168,L5688"
34,"Se II",1,33,"Selenium","As","Ar3d104s24p3","4s24p3","4S°3/2","4p2 3P0",0.021196,1e-05,"L17234c100"
34,"Se III",2,32,"Selenium","Ge","Ar3d104s24p2","4s24p2","3P0","4p 2P°1/2",0.031697,1.9e-05,"L17867"
34,"Se IV",3,31,"Selenium","Ga","Ar3d104s24p","4s24p","2P°1/2","4s2 1S0",0.042947,3e-06,"L925"
34,"Se V",4,30,"Selenium","Zn","Ar3d104s2","3d104s2","1S0","4s 2S1/2",0.0683,1e-04,"L16139"
34,"Se VI",5,29,"Selenium","Cu","Ar3d104s","3d104s","2S1/2","3d10 1S0",0.08183,3e-05,"L4300"
34,"Se VII",6,28,"Selenium","Ni","Ar3d10","3d10","1S0","3d9 2D5/2",0.155327,1.2e-05,"L6168"
34,"Se VIII",7,27,"Selenium","Co","Ar3d9","3p63d9","2D5/2","3d8 3F4",0.184,0.0021,"L8672c99"
34,"Se IX",8,26,"Selenium","Fe","Ar3d8","3p63d8","3F4","3d7 4F9/2",0.219,0.0022,"L8672c99"
34,"Se X",9,25,"Selenium","Mn","Ar3d7","3p63d7","4F9/2","3d6 5D4",0.255,0.0022,"L8672c99"
34,"Se XI",10,24,"Selenium","Cr","Ar3d6","3d6","5D4","3d5 6S5/2",0.291,0.0024,"L8672c99"
34,"Se XII",11,23,"Selenium","V","Ar3d5","3d5","6S5/2","3d4 5D0",0.3429,0.0025,"L8672c99"
34,"Se XIII",12,22,"Selenium","Ti","Ar3d4","3d4","5D0","3d3 4F3/2",0.383,0.003,"L8672c99"
34,"Se XIV",13,21,"Selenium","Sc","Ar3d3","3d3","4F3/2","3d2 3F2",0.426,0.003,"L8672c99"
34,"Se XV",14,20,"Selenium","Ca","Ar3d2","3p63d2","3F2","3d 2D3/2",0.473,0.003,"L8672c99"
34,"Se XVI",15,19,"Selenium","K","Ar3d","3p63d","2D3/2","3p6 1S0",0.517,0.003,"L8672c99"
34,"Se XVII",16,18,"Selenium","Ar","Ne3s23p6","3s23p6","1S0","3p5 2P°3/2",0.6505,0.0021,"L11770"
34,"Se XVIII",17,17,"Selenium","Cl","Ne3s23p5","3s23p5","2P°3/2","3p4 3P2",0.6934,7e-04,"L11770"
34,"Se XIX",18,16,"Selenium","S","Ne3s23p4","3s23p4","3P2","3p3 4S°3/2",0.7398,0.0011,"L11770"
34,"Se XX",19,15,"Selenium","P","Ne3s23p3","3s23p3","4S°3/2","3p2 3P0",0.798,0.003,"L11770"
34,"Se XXI",20,14,"Selenium","Si","Ne3s23p2","3s23p2","3P0","3p 2P°1/2",0.8458,0.002,"L11770"
34,"Se XXII",21,13,"Selenium","Al","Ne3s23p","3s23p","2P°1/2","3s2 1S0",0.887,0.004,"L11770"
34,"Se XXIII",22,12,"Selenium","Mg","Ne3s2","2p63s2","1S0","3s 2S1/2",0.9896,0.0013,"L11770"
34,"Se XXIV",23,11,"Selenium","Na","Ne3s","2p63s","2S1/2","2p6 1S0",1.03636,3e-05,"L11770"
34,"Se XXV",24,10,"Selenium","Ne","1s22s22p6","2s22p6","1S0","2p5 2P°3/2",2.5407,0.0014,"L11770"
34,"Se XXVI",25,9,"Selenium","F","1s22s22p5","2s22p5","2P°3/2","2p4 3P2",2.674,0.005,"L11770"
34,"Se XXVII",26,8,"Selenium","O","1s22s22p4","2s22p4","3P2","2p3 4S°3/2",2.82,0.006,"L11770"
34,"Se XXVIII",27,7,"Selenium","N","1s22s22p3","2s22p3","4S°3/2","2p2 3P0",2.964,0.022,"L11770"
34,"Se XXIX",28,6,"Selenium","C","1s22s22p2","2s22p2","3P0","2p 2P°1/2",3.146,0.003,"L11770"
34,"Se XXX",29,5,"Selenium","B","1s22s22p","2s22p","2P°1/2","2s2 1S0",3.3018,0.0021,"L11770"
34,"Se XXXI",30,4,"Selenium","Be","1s22s2","1s22s2","1S0","2s 2S1/2",3.507,0.003,"L11770"
34,"Se XXXII",31,3,"Selenium","Li","1s22s","1s22s","2S1/2","1s2 1S0",3.636526,7e-06,"L16264c99"
34,"Se XXXIII",32,2,"Selenium","He","1s2","1s2","1S0","1s 2S1/2",15.367491,3e-06,"L12128"
34,"Se XXXIV",33,1,"Selenium","H","1s","1s","2S1/2",NA,15.968084,9e-06,"L7188"
35,"Br I",0,35,"Bromine","Br","Ar3d104s24p5","4s24p5","2P°3/2","4p4 3P2",0.01181381,6e-08,"L351,L67"
35,"Br II",1,34,"Bromine","Se","Ar3d104s24p4","4s24p4","3P2","4p3 4S°3/2",0.021591,NA,"L8844"
35,"Br III",2,33,"Bromine","As","Ar3d104s24p3","4s24p3","4S°3/2","4p2 3P0",0.034871,1.9e-05,"L19007"
35,"Br IV",3,32,"Bromine","Ge","Ar3d104s24p2","4s24p2","3P0","4p 2P°1/2",0.047782,1.2e-05,"L18581"
35,"Br V",4,31,"Bromine","Ga","Ar3d104s24p","4s24p","2P°1/2","4s2 1S0",0.059595,2.5e-05,"L14906"
35,"Br VI",5,30,"Bromine","Zn","Ar3d104s2","3d104s2","1S0","4s 2S1/2",0.08739,2.5e-05,"L18281"
35,"Br VII",6,29,"Bromine","Cu","Ar3d104s","3d104s","2S1/2","3d10 1S0",0.10303,0.00019,"L10278"
35,"Br VIII",7,28,"Bromine","Ni","Ar3d10","3d10","1S0","3d9 2D5/2",0.19261,6e-05,"L6586"
35,"Br IX",8,27,"Bromine","Co","Ar3d9","3p63d9","2D5/2","3d8 3F4",0.224,0.0022,"L8672c99"
35,"Br X",9,26,"Bromine","Fe","Ar3d8","3p63d8","3F4","3d7 4F9/2",0.261,0.0022,"L8672c99"
35,"Br XI",10,25,"Bromine","Mn","Ar3d7","3p63d7","4F9/2","3d6 5D4",0.301,0.0024,"L8672c99"
35,"Br XII",11,24,"Bromine","Cr","Ar3d6","3d6","5D4","3d5 6S5/2",0.338,0.0025,"L8672c99"
35,"Br XIII",12,23,"Bromine","V","Ar3d5","3d5","6S5/2","3d4 5D0",0.393,0.003,"L8672c99"
35,"Br XIV",13,22,"Bromine","Ti","Ar3d4","3d4","5D0","3d3 4F3/2",0.436,0.003,"L8672c99"
35,"Br XV",14,21,"Bromine","Sc","Ar3d3","3d3","4F3/2","3d2 3F2",0.481,0.003,"L8672c99"
35,"Br XVI",15,20,"Bromine","Ca","Ar3d2","3p63d2","3F2","3d 2D3/2",0.53,0.003,"L8672c99"
35,"Br XVII",16,19,"Bromine","K","Ar3d","3p63d","2D3/2","3p6 1S0",0.577,0.003,"L8672c99"
35,"Br XVIII",17,18,"Bromine","Ar","Ne3s23p6","3s23p6","1S0","3p5 2P°3/2",0.7163,0.0023,"L11770"
35,"Br XIX",18,17,"Bromine","Cl","Ne3s23p5","3s23p5","2P°3/2","3p4 3P2",0.761,8e-04,"L11770"
35,"Br XX",19,16,"Bromine","S","Ne3s23p4","3s23p4","3P2","3p3 4S°3/2",0.8098,0.0012,"L11770"
35,"Br XXI",20,15,"Bromine","P","Ne3s23p3","3s23p3","4S°3/2","3p2 3P0",0.87,0.003,"L11770"
35,"Br XXII",21,14,"Bromine","Si","Ne3s23p2","3s23p2","3P0","3p 2P°1/2",0.9208,0.0022,"L11770"
35,"Br XXIII",22,13,"Bromine","Al","Ne3s23p","3s23p","2P°1/2","3s2 1S0",0.963,0.005,"L11770"
35,"Br XXIV",23,12,"Bromine","Mg","Ne3s2","3s2","1S0","3s 2S1/2",1.0706,0.0014,"L11770"
35,"Br XXV",24,11,"Bromine","Na","Ne3s","2p63s","2S1/2","2p6 1S0",1.11917,4e-05,"L11770"
35,"Br XXVI",25,10,"Bromine","Ne","1s22s22p6","2s22p6","1S0","2p5 2P°3/2",2.7314,0.0015,"L11770"
35,"Br XXVII",26,9,"Bromine","F","1s22s22p5","2s22p5","2P°3/2","2p4 3P2",2.869,0.005,"L11770"
35,"Br XXVIII",27,8,"Bromine","O","1s22s22p4","2s22p4","3P2","2p3 4S°3/2",3.021,0.007,"L11770"
35,"Br XXIX",28,7,"Bromine","N","1s22s22p3","2s22p3","4S°3/2","2p2 3P0",3.169,0.024,"L11770"
35,"Br XXX",29,6,"Bromine","C","1s22s22p2","2s22p2","3P0","2p 2P°1/2",3.361,0.003,"L11770"
35,"Br XXXI",30,5,"Bromine","B","1s22s22p","2s22p","2P°1/2","2s2 1S0",3.5231,0.0022,"L11770"
35,"Br XXXII",31,4,"Bromine","Be","1s22s2","1s22s2","1S0","2s 2S1/2",3.735,0.004,"L11770"
35,"Br XXXIII",32,3,"Bromine","Li","1s22s","1s22s","2S1/2","1s2 1S0",3.868986,7e-06,"L16264c99"
35,"Br XXXIV",33,2,"Bromine","He","1s2","1s2","1S0","1s 2S1/2",16.317011,4e-06,"L12128"
35,"Br XXXV",34,1,"Bromine","H","1s","1s","2S1/2",NA,16.937127,1e-05,"L7188"
36,"Kr I",0,36,"Krypton","Kr","Ar3d104s24p6","4s24p6","1S0","4p5 2P°3/2",0.0139996055,2e-09,"L12196"
36,"Kr II",1,35,"Krypton","Br","Ar3d104s24p5","4s24p5","2P°3/2","4p4 3P2",0.02435984,1.2e-07,"L7212,L353"
36,"Kr III",2,34,"Krypton","Se","Ar3d104s24p4","4s24p4","3P2","4p3 4S°3/2",0.035838,2e-05,"L15467"
36,"Kr IV",3,33,"Krypton","As","Ar3d104s24p3","4s24p3","4S°3/2","4p2 3P0",0.05085,0.00011,"L9022c101"
36,"Kr V",4,32,"Krypton","Ge","Ar3d104s24p2","4s24p2","3P0","4p 2P°1/2",0.06469,2e-04,"L12196,L16139"
36,"Kr VI",5,31,"Krypton","Ga","Ar3d104s24p","4s24p","2P°1/2","4s2 1S0",0.07849,2e-04,"L12196,L16139"
36,"Kr VII",6,30,"Krypton","Zn","Ar3d104s2","4s2","1S0","4s 2S1/2",0.10913,5e-05,"L13202"
36,"Kr VIII",7,29,"Krypton","Cu","Ar3d104s","4s","2S1/2","3d10 1S0",0.125802,3e-06,"L10636"
36,"Kr IX",8,28,"Krypton","Ni","Ar3d10","3d10","1S0","3d9 2D5/2",0.233,7e-04,"L10191"
36,"Kr X",9,27,"Krypton","Co","Ar3d9","3p63d9","2D5/2","3d8 3F4",0.268,0.003,"L7212"
36,"Kr XI",10,26,"Krypton","Fe","Ar3d8","3d8","3F4","3d7 4F9/2",0.308,0.003,"L7212"
36,"Kr XII",11,25,"Krypton","Mn","Ar3d7","3d7","4F9/2","3d6 5D4",0.35,0.003,"L7212"
36,"Kr XIII",12,24,"Krypton","Cr","Ar3d6","3d6","5D4","3d5 6S5/2",0.391,0.004,"L7212"
36,"Kr XIV",13,23,"Krypton","V","Ar3d5","3d5","6S5/2","3d4 5D0",0.446,0.003,"L8672c99"
36,"Kr XV",14,22,"Krypton","Ti","Ar3d4","3d4","5D0","3d3 4F3/2",0.492,0.005,"L12196"
36,"Kr XVI",15,21,"Krypton","Sc","Ar3d3","3d3","4F3/2","3d2 3F2",0.54,0.003,"L8672c99"
36,"Kr XVII",16,20,"Krypton","Ca","Ar3d2","3d2","3F2","3d 2D3/2",0.591,0.003,"L8672c99"
36,"Kr XVIII",17,19,"Krypton","K","Ar3d","3p63d","2D3/2","3p6 1S0",0.64,0.003,"L8672c99"
36,"Kr XIX",18,18,"Krypton","Ar","Ne3s23p6","3s23p6","1S0","3p5 2P°3/2",0.785,0.003,"L11770"
36,"Kr XX",19,17,"Krypton","Cl","Ne3s23p5","3s23p5","2P°3/2","3p4 3P2",0.8316,9e-04,"L11770"