"Z","Species","CS","Occ","Element","Iso_elec","Ground_Shells","Ground_Config","Ground_Level","Ionized_Level","IE","IE_uncertainty","References"
69,"Tm XXXV",34,35,"Thulium","Br","Ar3d104s24p5","4p5","2P°3/2","4p4 3P2",1.49,0.005,"L8672c99"
69,"Tm XXXVI",35,34,"Thulium","Se","Ar3d104s24p4","4p4","3P2","4p3 4S°3/2",1.542,0.005,"L8672c99"
69,"Tm XXXVII",36,33,"Thulium","As","Ar3d104s24p3","4p3","4S°3/2","4p2 3P0",1.591,0.005,"L8672c99"
69,"Tm XXXVIII",37,32,"Thulium","Ge","Ar3d104s24p2","4p2","3P0","4p 2P°1/2",1.706,0.004,"L8672c99"
69,"Tm XXXIX",38,31,"Thulium","Ga","Ar3d104s24p","4p","2P°1/2","4s2 1S0",1.761,0.004,"L8672c99"
69,"Tm XL",39,30,"Thulium","Zn","Ar3d104s2","4s2","1S0","4s 2S1/2",1.889,0.004,"L8672c99"
69,"Tm XLI",40,29,"Thulium","Cu","Ar3d104s","4s","2S1/2","3d10 1S0",1.9452,0.001,"L10278"
69,"Tm XLII",41,28,"Thulium","Ni","Ar3d10","3d10","1S0","3d9 2D5/2",3.298,0.004,"L8672c99"
69,"Tm XLIII",42,27,"Thulium","Co","Ar3d9","3d9","2D5/2","3d8 3F4",3.409,0.004,"L8672c99"
69,"Tm XLIV",43,26,"Thulium","Fe","Ar3d8","3d8","3F4","3d7 4F9/2",3.528,0.004,"L8672c99"
69,"Tm XLV",44,25,"Thulium","Mn","Ar3d7","3d7","4F9/2","3d6 4",3.653,0.004,"L8672c99"
69,"Tm XLVI",45,24,"Thulium","Cr","Ar3d6","3d6","4","3d5 5/2",3.775,0.004,"L8672c99"
69,"Tm XLVII",46,23,"Thulium","V","Ar3d5","3d5","5/2","3d4 5D0",3.895,0.004,"L8672c99"
69,"Tm XLVIII",47,22,"Thulium","Ti","Ar3d4","3d4","5D0","3d3 4F3/2",4.075,0.004,"L8672c99"
69,"Tm XLIX",48,21,"Thulium","Sc","Ar3d3","3d3","4F3/2","3d2 3F2",4.199,0.004,"L8672c99"
69,"Tm L",49,20,"Thulium","Ca","Ar3d2","3d2","3F2","3d 2D3/2",4.335,0.004,"L8672c99"
69,"Tm LI",50,19,"Thulium","K","Ar3d","3d","2D3/2","3p6 1S0",4.461,0.004,"L8672c99"
69,"Tm LII",51,18,"Thulium","Ar","Ne3s23p6","3p6","1S0","3p5 2P°3/2",4.812,0.004,"L8672c99"
69,"Tm LIII",52,17,"Thulium","Cl","Ne3s23p5","3p5","2P°3/2","3p4 3P2",4.922,0.004,"L8672c99"
69,"Tm LIV",53,16,"Thulium","S","Ne3s23p4","3p4","3P2","3p3 2P°3/2",5.044,0.005,"L8672c99"
69,"Tm LV",54,15,"Thulium","P","Ne3s23p3","3p3","2P°3/2","3p2 3P0",5.157,0.005,"L8672c99"
69,"Tm LVI",55,14,"Thulium","Si","Ne3s23p2","3p2","3P0","3p 2P°1/2",5.527,0.005,"L8672c99"
69,"Tm LVII",56,13,"Thulium","Al","Ne3s23p","3p","2P°1/2","3s2 1S0",5.656,0.005,"L8672c99"
69,"Tm LVIII",57,12,"Thulium","Mg","Ne3s2","3s2","1S0","3s 2S1/2",5.901,0.006,"L8672c99"
69,"Tm LIX",58,11,"Thulium","Na","Ne3s","3s","2S1/2","2p6 1S0",6.023,0.006,"L8672c99"
69,"Tm LX",59,10,"Thulium","Ne","1s22s22p6","2p6","1S0","2p5 2P°3/2",13.347,0.007,"L8672c99"
69,"Tm LXI",60,9,"Thulium","F","1s22s22p5","2p5","2P°3/2","2p4 3P2",13.651,0.01,"L8672c99"
69,"Tm LXII",61,8,"Thulium","O","1s22s22p4","2p4","3P2","2p21/22p3/2 0,3/2°3/2",13.988,0.012,"L8672c99"
69,"Tm LXIII",62,7,"Thulium","N","1s22s22p3","2p21/22p3/2","0,3/2°3/2","2p2 3P0",14.3,0.015,"L8672c99"
69,"Tm LXIV",63,6,"Thulium","C","1s22s22p2","2p2","3P0","2p 2P°1/2",15.663,0.019,"L8672c99"
69,"Tm LXV",64,5,"Thulium","B","1s22s22p","2p","2P°1/2","2s2 1S0",16.036,0.024,"L8672c99"
69,"Tm LXVI",65,4,"Thulium","Be","1s22s2","2s2","1S0","2s 2S1/2",16.51,0.03,"L8672c99"
69,"Tm LXVII",66,3,"Thulium","Li","1s22s","2s","2S1/2","1s2 1S0",16.81434,0.00014,"L16264c99"
69,"Tm LXVIII",67,2,"Thulium","He","1s2","1s2","1S0","1s 2S1/2",67.96526,6e-05,"L12128"
69,"Tm LXIX",68,1,"Thulium","H","1s","1s","2S1/2",NA,69.3873,3e-04,"L7188"
70,"Yb I",0,70,"Ytterbium","Yb","Xe4f146s2","4f146s2","1S0","6s 2S1/2",0.00625416,1.2e-08,"L4980"
70,"Yb II",1,69,"Ytterbium","Tm","Xe4f146s","4f146s","2S1/2","4f14 1S0",0.012179185,2.5e-08,"L12907"
70,"Yb III",2,68,"Ytterbium","Er","Xe4f14","4f14","1S0","4f135p6 2F°7/2",0.025053,2.5e-05,"L3974,L3654"
70,"Yb IV",3,67,"Ytterbium","Ho","Xe4f13","4f13","2F°7/2","4f125p6 3H6",0.04361,4e-05,"L19883c180"
70,"Yb V",4,66,"Ytterbium","Dy","Xe4f12","4f125p6","3H6","4f125p5°",0.0656,3e-04,"L4095"
70,"Yb VI",5,65,"Ytterbium","Tb","Cd4f125p5","4f125p5","°","4f125p4",0.099,0.005,"L582"
70,"Yb VII",6,64,"Ytterbium","Gd","Cd4f125p4","4f125p4",NA,"4f125p3°",0.117,0.006,"L582"
70,"Yb VIII",7,63,"Ytterbium","Eu","Cd4f125p3","4f125p3","°","4f125p2",0.135,0.007,"L582"
70,"Yb IX",8,62,"Ytterbium","Sm","Cd4f125p2","4f125p2",NA,"4f125s25p°",0.163,0.008,"L582"
70,"Yb X",9,61,"Ytterbium","Pm","Cd4f125p","4f125s25p","°","4f125s2 3H6",0.182,0.009,"L582"
70,"Yb XI",10,60,"Ytterbium","Nd","Cd4f12","4f125s2","3H6","4f115s2 4I°15/2",0.209,0.01,"L582"
70,"Yb XII",11,59,"Ytterbium","Pr","Cd4f11","4f115s2","4I°15/2","4f105s2",0.244,0.012,"L582"
70,"Yb XIII",12,58,"Ytterbium","Ce","Cd4f10","4f105s2",NA,"4f105s",0.279,0.014,"L582"
70,"Yb XIV",13,57,"Ytterbium","La","Kr4d104f105s","4f105s",NA,"4f10",0.301,0.015,"L582"
70,"Yb XV",14,56,"Ytterbium","Ba","Kr4d104f10","4f10",NA,"4f9 6H°15/2",0.324,0.016,"L582"
70,"Yb XVI",15,55,"Ytterbium","Cs","Kr4d104f9","4f9","6H°15/2","4f8 7F6",0.36,0.019,"L582"
70,"Yb XVII",16,54,"Ytterbium","Xe","Kr4d104f8","4f8","7F6","4f7 8S°7/2",0.396,0.02,"L582"
70,"Yb XVIII",17,53,"Ytterbium","I","Kr4d104f7","4f7","8S°7/2","4f6 7F0",0.431,0.021,"L582"
70,"Yb XIX",18,52,"Ytterbium","Te","Kr4d104f6","4f6","7F0","4f5 6H°5/2",0.469,0.024,"L582"
70,"Yb XX",19,51,"Ytterbium","Sb","Kr4d104f5","4f5","6H°5/2","4f4 5I4",0.505,0.025,"L582"
70,"Yb XXI",20,50,"Ytterbium","Sn","Kr4d104f4","4f4","5I4","4f3 4I°9/2",0.54,0.03,"L582"
70,"Yb XXII",21,49,"Ytterbium","In","Kr4d104f3","4f3","4I°9/2","4f2 3H4",0.58,0.03,"L582"
70,"Yb XXIII",22,48,"Ytterbium","Cd","Kr4d104f2","4f2","3H4","4f 2F°5/2",0.61,0.03,"L582"
70,"Yb XXIV",23,47,"Ytterbium","Ag","Kr4d104f","4f","2F°5/2","4d10 1S0",0.651,0.006,"L582c99"
70,"Yb XXV",24,46,"Ytterbium","Pd","Kr4d10","4d10","1S0","4d9 2D5/2",0.882,0.004,"L8672c99"
70,"Yb XXVI",25,45,"Ytterbium","Rh","Kr4d9","4d9","2D5/2","4d8 3F4",0.924,0.004,"L8672c99"
70,"Yb XXVII",26,44,"Ytterbium","Ru","Kr4d8","4d8","3F4","4d7 4F9/2",0.971,0.004,"L8672c99"
70,"Yb XXVIII",27,43,"Ytterbium","Tc","Kr4d7","4d7","4F9/2","4d6 5D4",1.019,0.004,"L8672c99"
70,"Yb XXIX",28,42,"Ytterbium","Mo","Kr4d6","4d6","5D4","4d5 6S5/2",1.065,0.004,"L8672c99"
70,"Yb XXX",29,41,"Ytterbium","Nb","Kr4d5","4d5","6S5/2","4d4 5D0",1.114,0.004,"L8672c99"
70,"Yb XXXI",30,40,"Ytterbium","Zr","Kr4d4","4d4","5D0","4d3 4F3/2",1.175,0.004,"L8672c99"
70,"Yb XXXII",31,39,"Ytterbium","Y","Kr4d3","4d3","4F3/2","4d2 3F2",1.224,0.004,"L8672c99"
70,"Yb XXXIII",32,38,"Ytterbium","Sr","Kr4d2","4d2","3F2","4d 2D3/2",1.275,0.004,"L8672c99"
70,"Yb XXXIV",33,37,"Ytterbium","Rb","Kr4d","4d","2D3/2","4p6 1S0",1.324,0.005,"L8672c99"
70,"Yb XXXV",34,36,"Ytterbium","Kr","Ar3d104s24p6","4p6","1S0","4p5 2P°3/2",1.516,0.005,"L8672c99"
70,"Yb XXXVI",35,35,"Ytterbium","Br","Ar3d104s24p5","4p5","2P°3/2","4p4 3P2",1.564,0.005,"L8672c99"
70,"Yb XXXVII",36,34,"Ytterbium","Se","Ar3d104s24p4","4p4","3P2","4p3 4S°3/2",1.618,0.005,"L8672c99"
70,"Yb XXXVIII",37,33,"Ytterbium","As","Ar3d104s24p3","4p3","4S°3/2","4p2 3P0",1.668,0.004,"L8672c98,c99"
70,"Yb XXXIX",38,32,"Ytterbium","Ge","Ar3d104s24p2","4p2","3P0","4p 2P°1/2",1.789,0.004,"L8672c98,c99"
70,"Yb XL",39,31,"Ytterbium","Ga","Ar3d104s24p","4p","2P°1/2","4s2 1S0",1.845,0.004,"L8672c99"
70,"Yb XLI",40,30,"Ytterbium","Zn","Ar3d104s2","4s2","1S0","4s 2S1/2",1.978,0.004,"L8672c99"
70,"Yb XLII",41,29,"Ytterbium","Cu","Ar3d104s","4s","2S1/2","3d10 1S0",2.0364,0.001,"L10191"
70,"Yb XLIII",42,28,"Ytterbium","Ni","Ar3d10","3d10","1S0","3d9 2D5/2",3.443,0.004,"L8672c99"
70,"Yb XLIV",43,27,"Ytterbium","Co","Ar3d9","3d9","2D5/2","3d8 3F4",3.555,0.004,"L8672c99"
70,"Yb XLV",44,26,"Ytterbium","Fe","Ar3d8","3d8","3F4","3d7 4F9/2",3.677,0.004,"L8672c99"
70,"Yb XLVI",45,25,"Ytterbium","Mn","Ar3d7","3d7","4F9/2","3d6 4",3.805,0.004,"L8672c99"
70,"Yb XLVII",46,24,"Ytterbium","Cr","Ar3d6","3d6","4","3d5 5/2",3.929,0.004,"L8672c99"
70,"Yb XLVIII",47,23,"Ytterbium","V","Ar3d5","3d5","5/2","3d4 5D0",4.051,0.004,"L8672c99"
70,"Yb XLIX",48,22,"Ytterbium","Ti","Ar3d4","3d4","5D0","3d3 4F3/2",4.238,0.004,"L8672c99"
70,"Yb L",49,21,"Ytterbium","Sc","Ar3d3","3d3","4F3/2","3d2 3F2",4.364,0.004,"L8672c99"
70,"Yb LI",50,20,"Ytterbium","Ca","Ar3d2","3d2","3F2","3d 2D3/2",4.502,0.004,"L8672c99"
70,"Yb LII",51,19,"Ytterbium","K","Ar3d","3d","2D3/2","3p6 1S0",4.63,0.004,"L8672c99"
70,"Yb LIII",52,18,"Ytterbium","Ar","Ne3s23p6","3p6","1S0","3p5 2P°3/2",4.988,0.004,"L8672c99"
70,"Yb LIV",53,17,"Ytterbium","Cl","Ne3s23p5","3p5","2P°3/2","3p4 3P2",5.101,0.005,"L8672c99"
70,"Yb LV",54,16,"Ytterbium","S","Ne3s23p4","3p4","3P2","3p3 2P°3/2",5.224,0.005,"L8672c99"
70,"Yb LVI",55,15,"Ytterbium","P","Ne3s23p3","3p3","2P°3/2","3p2 3P0",5.339,0.005,"L8672c99"
70,"Yb LVII",56,14,"Ytterbium","Si","Ne3s23p2","3p2","3P0","3p 2P°1/2",5.731,0.005,"L8672c99"
70,"Yb LVIII",57,13,"Ytterbium","Al","Ne3s23p","3p","2P°1/2","3s2 1S0",5.86,0.006,"L8672c99"
70,"Yb LIX",58,12,"Ytterbium","Mg","Ne3s2","3s2","1S0","3s 2S1/2",6.111,0.006,"L8672c99"
70,"Yb LX",59,11,"Ytterbium","Na","Ne3s","3s","2S1/2","2p6 1S0",6.236,0.007,"L8672c99"
70,"Yb LXI",60,10,"Ytterbium","Ne","1s22s22p6","2p6","1S0","2p5 2P°3/2",13.784,0.01,"L8672c99"
70,"Yb LXII",61,9,"Ytterbium","F","1s22s22p5","2p5","2P°3/2","2p4 3P2",14.093,0.012,"L8672c99"
70,"Yb LXIII",62,8,"Ytterbium","O","1s22s22p4","2p4","3P2","2p21/22p3/2 0,3/2°3/2",14.435,0.015,"L8672c99"
70,"Yb LXIV",63,7,"Ytterbium","N","1s22s22p3","2p21/22p3/2","0,3/2°3/2","2p2 3P0",14.752,0.019,"L8672c99"
70,"Yb LXV",64,6,"Ytterbium","C","1s22s22p2","2p2","3P0","2p 2P°1/2",16.191,0.024,"L8672c99"
70,"Yb LXVI",65,5,"Ytterbium","B","1s22s22p","2p","2P°1/2","2s2 1S0",16.57,0.03,"L8672c99"
70,"Yb LXVII",66,4,"Ytterbium","Be","1s22s2","2s2","1S0","2s 2S1/2",17.05,0.04,"L8672c99"
70,"Yb LXVIII",67,3,"Ytterbium","Li","1s22s","2s","2S1/2","1s2 1S0",17.36544,0.00015,"L16264c99"
70,"Yb LXIX",68,2,"Ytterbium","He","1s2","1s2","1S0","1s 2S1/2",70.12304,7e-05,"L12128"
70,"Yb LXX",69,1,"Ytterbium","H","1s","1s","2S1/2",NA,71.5748,3e-04,"L7188"
71,"Lu I",0,71,"Lutetium","Lu","Xe4f145d6s2","5d6s2","2D3/2","6s2 1S0",0.005425871,1.2e-08,"L10494,L1638"
71,"Lu II",1,70,"Lutetium","Yb","Xe4f146s2","6s2","1S0","6s 2S1/2",0.01413,5e-05,"L19870c180"
71,"Lu III",2,69,"Lutetium","Tm","Xe4f146s","4f146s","2S1/2","4f14 1S0",0.0209594,1.2e-06,"L1402"
71,"Lu IV",3,68,"Lutetium","Er","Xe4f14","4f14","1S0","4f135p6 2F°7/2",0.045249,2.5e-05,"L3974,L3654"
71,"Lu V",4,67,"Lutetium","Ho","Xe4f13","4f13","2F°7/2","4f125p6 3H6",0.0668,3e-04,"L4095"
71,"Lu VI",5,66,"Lutetium","Dy","Xe4f12","4f125p6","3H6","4f135p4°",0.098,0.005,"L582"
71,"Lu VII",6,65,"Lutetium","Tb","Cd4f135p4","4f135p4","°","4f135p3",0.117,0.006,"L582"
71,"Lu VIII",7,64,"Lutetium","Gd","Cd4f135p3","4f135p3",NA,"4f135p2 4F°7/2",0.136,0.007,"L582"
71,"Lu IX",8,63,"Lutetium","Eu","Cd4f135p2","4f135p2","4F°7/2","4f125p2",0.159,0.008,"L582"
71,"Lu X",9,62,"Lutetium","Sm","Cd4f125p2","4f125p2",NA,"4f125s25p°",0.185,0.009,"L582"
71,"Lu XI",10,61,"Lutetium","Pm","Cd4f125p","4f125s25p","°","4f125s2 3H6",0.205,0.01,"L582"
71,"Lu XII",11,60,"Lutetium","Nd","Cd4f12","4f125s2","3H6","4f115s2 4I°15/2",0.238,0.012,"L582"
71,"Lu XIII",12,59,"Lutetium","Pr","Cd4f11","4f115s2","4I°15/2","4f105s2",0.276,0.014,"L582"
71,"Lu XIV",13,58,"Lutetium","Ce","Cd4f10","4f105s2",NA,"4f105s",0.305,0.015,"L582"
71,"Lu XV",14,57,"Lutetium","La","Kr4d104f105s","4f105s",NA,"4f10",0.328,0.016,"L582"
71,"Lu XVI",15,56,"Lutetium","Ba","Kr4d104f10","4f10",NA,"4f9 6H°15/2",0.361,0.019,"L582"
71,"Lu XVII",16,55,"Lutetium","Cs","Kr4d104f9","4f9","6H°15/2","4f8 7F6",0.399,0.02,"L582"
71,"Lu XVIII",17,54,"Lutetium","Xe","Kr4d104f8","4f8","7F6","4f7 8S°7/2",0.438,0.022,"L582"
71,"Lu XIX",18,53,"Lutetium","I","Kr4d104f7","4f7","8S°7/2","4f6 7F0",0.476,0.024,"L582"
71,"Lu XX",19,52,"Lutetium","Te","Kr4d104f6","4f6","7F0","4f5 6H°5/2",0.52,0.03,"L582"
71,"Lu XXI",20,51,"Lutetium","Sb","Kr4d104f5","4f5","6H°5/2","4f4 5I4",0.56,0.03,"L582"
71,"Lu XXII",21,50,"Lutetium","Sn","Kr4d104f4","4f4","5I4","4f3 4I°9/2",0.6,0.03,"L582"
71,"Lu XXIII",22,49,"Lutetium","In","Kr4d104f3","4f3","4I°9/2","4f2 3H4",0.63,0.03,"L582"
71,"Lu XXIV",23,48,"Lutetium","Cd","Kr4d104f2","4f2","3H4","4f 2F°5/2",0.67,0.03,"L582"
71,"Lu XXV",24,47,"Lutetium","Ag","Kr4d104f","4f","2F°5/2","4d10 1S0",0.713,0.007,"L582c99"
71,"Lu XXVI",25,46,"Lutetium","Pd","Kr4d10","4d10","1S0","4d9 2D5/2",0.941,0.004,"L8672c99"
71,"Lu XXVII",26,45,"Lutetium","Rh","Kr4d9","4d9","2D5/2","4d8 3F4",0.985,0.004,"L8672c99"
71,"Lu XXVIII",27,44,"Lutetium","Ru","Kr4d8","4d8","3F4","4d7 4F9/2",1.032,0.004,"L8672c99"
71,"Lu XXIX",28,43,"Lutetium","Tc","Kr4d7","4d7","4F9/2","4d6 5D4",1.081,0.004,"L8672c99"
71,"Lu XXX",29,42,"Lutetium","Mo","Kr4d6","4d6","5D4","4d5 6S5/2",1.13,0.004,"L8672c99"
71,"Lu XXXI",30,41,"Lutetium","Nb","Kr4d5","4d5","6S5/2","4d4 5D0",1.178,0.004,"L8672c99"
71,"Lu XXXII",31,40,"Lutetium","Zr","Kr4d4","4d4","5D0","4d3 4F3/2",1.242,0.004,"L8672c99"
71,"Lu XXXIII",32,39,"Lutetium","Y","Kr4d3","4d3","4F3/2","4d2 3F2",1.292,0.004,"L8672c99"
71,"Lu XXXIV",33,38,"Lutetium","Sr","Kr4d2","4d2","3F2","4d 2D3/2",1.345,0.005,"L8672c99"
71,"Lu XXXV",34,37,"Lutetium","Rb","Kr4d","4d","2D3/2","4p6 1S0",1.395,0.005,"L8672c99"
71,"Lu XXXVI",35,36,"Lutetium","Kr","Ar3d104s24p6","4p6","1S0","4p5 2P°3/2",1.591,0.005,"L8672c99"
71,"Lu XXXVII",36,35,"Lutetium","Br","Ar3d104s24p5","4p5","2P°3/2","4p4 3P2",1.641,0.005,"L8672c99"
71,"Lu XXXVIII",37,34,"Lutetium","Se","Ar3d104s24p4","4p4","3P2","4p3 4S°3/2",1.696,0.004,"L8672c99"
71,"Lu XXXIX",38,33,"Lutetium","As","Ar3d104s24p3","4p3","4S°3/2","4p2 3P0",1.747,0.004,"L8672c99"
71,"Lu XL",39,32,"Lutetium","Ge","Ar3d104s24p2","4p2","3P0","4p 2P°1/2",1.875,0.004,"L8672c99"
71,"Lu XLI",40,31,"Lutetium","Ga","Ar3d104s24p","4p","2P°1/2","4s2 1S0",1.933,0.004,"L8672c99"
71,"Lu XLII",41,30,"Lutetium","Zn","Ar3d104s2","4s2","1S0","4s 2S1/2",2.067,0.004,"L8672c99"
71,"Lu XLIII",42,29,"Lutetium","Cu","Ar3d104s","4s","2S1/2","3d10 1S0",2.1255,0.0011,"L10278"
71,"Lu XLIV",43,28,"Lutetium","Ni","Ar3d10","3d10","1S0","3d9 2D5/2",3.59,0.004,"L8672c99"
71,"Lu XLV",44,27,"Lutetium","Co","Ar3d9","3d9","2D5/2","3d8 3F4",3.706,0.004,"L8672c99"
71,"Lu XLVI",45,26,"Lutetium","Fe","Ar3d8","3d8","3F4","3d7 4F9/2",3.828,0.004,"L8672c99"
71,"Lu XLVII",46,25,"Lutetium","Mn","Ar3d7","3d7","4F9/2","3d6 4",3.96,0.004,"L8672c99"
71,"Lu XLVIII",47,24,"Lutetium","Cr","Ar3d6","3d6","4","3d5 5/2",4.086,0.004,"L8672c99"
71,"Lu XLIX",48,23,"Lutetium","V","Ar3d5","3d5","5/2","3d4 5D0",4.211,0.004,"L8672c99"
71,"Lu L",49,22,"Lutetium","Ti","Ar3d4","3d4","5D0","3d3 4F3/2",4.403,0.004,"L8672c99"
71,"Lu LI",50,21,"Lutetium","Sc","Ar3d3","3d3","4F3/2","3d2 3F2",4.532,0.004,"L8672c99"
71,"Lu LII",51,20,"Lutetium","Ca","Ar3d2","3d2","3F2","3d 2D3/2",4.673,0.004,"L8672c99"
71,"Lu LIII",52,19,"Lutetium","K","Ar3d","3d","2D3/2","3p6 1S0",4.803,0.004,"L8672c99"
71,"Lu LIV",53,18,"Lutetium","Ar","Ne3s23p6","3p6","1S0","3p5 2P°3/2",5.168,0.005,"L8672c99"
71,"Lu LV",54,17,"Lutetium","Cl","Ne3s23p5","3p5","2P°3/2","3p4 3P2",5.282,0.005,"L8672c99"
71,"Lu LVI",55,16,"Lutetium","S","Ne3s23p4","3p4","3P2","3p3 2P°3/2",5.408,0.005,"L8672c99"
71,"Lu LVII",56,15,"Lutetium","P","Ne3s23p3","3p3","2P°3/2","3p2 3P0",5.525,0.005,"L8672c99"
71,"Lu LVIII",57,14,"Lutetium","Si","Ne3s23p2","3p2","3P0","3p 2P°1/2",5.937,0.006,"L8672c99"
71,"Lu LIX",58,13,"Lutetium","Al","Ne3s23p","3p","2P°1/2","3s2 1S0",6.07,0.006,"L8672c99"
71,"Lu LX",59,12,"Lutetium","Mg","Ne3s2","3s2","1S0","3s 2S1/2",6.326,0.007,"L8672c99"
71,"Lu LXI",60,11,"Lutetium","Na","Ne3s","3s","2S1/2","2p6 1S0",6.452,0.01,"L8672c99"
71,"Lu LXII",61,10,"Lutetium","Ne","1s22s22p6","2p6","1S0","2p5 2P°3/2",14.228,0.012,"L8672c99"
71,"Lu LXIII",62,9,"Lutetium","F","1s22s22p5","2p5","2P°3/2","2p4 3P2",14.542,0.015,"L8672c99"
71,"Lu LXIV",63,8,"Lutetium","O","1s22s22p4","2p4","3P2","2p21/22p3/2 0,3/2°3/2",14.89,0.019,"L8672c99"
71,"Lu LXV",64,7,"Lutetium","N","1s22s22p3","2p21/22p3/2","0,3/2°3/2","2p2 3P0",15.211,0.024,"L8672c99"
71,"Lu LXVI",65,6,"Lutetium","C","1s22s22p2","2p2","3P0","2p 2P°1/2",16.73,0.03,"L8672c99"
71,"Lu LXVII",66,5,"Lutetium","B","1s22s22p","2p","2P°1/2","2s2 1S0",17.12,0.04,"L8672c99"
71,"Lu LXVIII",67,4,"Lutetium","Be","1s22s2","2s2","1S0","2s 2S1/2",17.61,0.04,"L8672c99"
71,"Lu LXIX",68,3,"Lutetium","Li","1s22s","2s","2S1/2","1s2 1S0",17.92805,0.00016,"L16264c99"
71,"Lu LXX",69,2,"Lutetium","He","1s2","1s2","1S0","1s 2S1/2",72.32291,0.00022,"L12128"
71,"Lu LXXI",70,1,"Lutetium","H","1s","1s","2S1/2",NA,73.8048,4e-04,"L7188"
72,"Hf I",0,72,"Hafnium","Hf","Xe4f145d26s2","5d26s2","3F2","5d6s2 2D3/2",0.00682507,1.2e-08,"L14027,L10033"
72,"Hf II",1,71,"Hafnium","Lu","Xe4f145d6s2","5d6s2","2D3/2","5d2 3F2",0.01461,4e-05,"L19691"
72,"Hf III",2,70,"Hafnium","Yb","Xe4f145d2","5d2","3F2","5d 2D3/2",0.02255,4e-05,"L19691"
72,"Hf IV",3,69,"Hafnium","Tm","Xe4f145d","5d","2D3/2","4f14 1S0",0.03337,2.5e-05,"L3654"
72,"Hf V",4,68,"Hafnium","Er","Xe4f14","4f14","1S0","4f135p6 2F°7/2",0.06837,4e-05,"L3654"
72,"Hf VI",5,67,"Hafnium","Ho","Xe4f13","4f135p6","2F°7/2","4f135p5",0.098,0.005,"L582"
72,"Hf VII",6,66,"Hafnium","Dy","Cd4f135p5","4f135p5",NA,"4f135p4°",0.118,0.006,"L582"
72,"Hf VIII",7,65,"Hafnium","Tb","Cd4f135p4","4f135p4","°","4f135p3",0.137,0.007,"L582"
72,"Hf IX",8,64,"Hafnium","Gd","Cd4f135p3","4f135p3",NA,"4f135p2 4F°7/2",0.157,0.008,"L582"
72,"Hf X",9,63,"Hafnium","Eu","Cd4f135p2","4f135p2","4F°7/2","4f125p2",0.187,0.009,"L582"
72,"Hf XI",10,62,"Hafnium","Sm","Cd4f125p2","4f125p2",NA,"4f125s25p°",0.209,0.01,"L582"
72,"Hf XII",11,61,"Hafnium","Pm","Cd4f125p","4f125s25p","°","4f125s2 3H6",0.23,0.012,"L582"
72,"Hf XIII",12,60,"Hafnium","Nd","Cd4f12","4f125s2","3H6","4f115s2 4I°15/2",0.27,0.014,"L582"
72,"Hf XIV",13,59,"Hafnium","Pr","Cd4f11","4f115s2","4I°15/2","4f115s 5I°4",0.31,0.015,"L582"
72,"Hf XV",14,58,"Hafnium","Ce","Kr4d104f115s","4f115s","5I°8","4f11°",0.334,0.016,"L582"
72,"Hf XVI",15,57,"Hafnium","La","Kr4d104f11","4f11","°","4f10",0.359,0.017,"L582"
72,"Hf XVII",16,56,"Hafnium","Ba","Kr4d104f10","4f10",NA,"4f9 6H°15/2",0.399,0.02,"L582"
72,"Hf XVIII",17,55,"Hafnium","Cs","Kr4d104f9","4f9","6H°15/2","4f8 7F6",0.44,0.022,"L582"
72,"Hf XIX",18,54,"Hafnium","Xe","Kr4d104f8","4f8","7F6","4f7 8S°7/2",0.481,0.024,"L582"
72,"Hf XX",19,53,"Hafnium","I","Kr4d104f7","4f7","8S°7/2","4f6 7F0",0.52,0.03,"L582"
72,"Hf XXI",20,52,"Hafnium","Te","Kr4d104f6","4f6","7F0","4f5 6H°5/2",0.57,0.03,"L582"
72,"Hf XXII",21,51,"Hafnium","Sb","Kr4d104f5","4f5","6H°5/2","4f4 5I4",0.61,0.03,"L582"
72,"Hf XXIII",22,50,"Hafnium","Sn","Kr4d104f4","4f4","5I4","4f3 4I°9/2",0.65,0.03,"L582"
72,"Hf XXIV",23,49,"Hafnium","In","Kr4d104f3","4f3","4I°9/2","4f2 3H4",0.69,0.03,"L582"
72,"Hf XXV",24,48,"Hafnium","Cd","Kr4d104f2","4f2","3H4","4f 2F°5/2",0.73,0.04,"L582"
72,"Hf XXVI",25,47,"Hafnium","Ag","Kr4d104f","4f","2F°5/2","4d10 1S0",0.772,0.009,"L582c99"
72,"Hf XXVII",26,46,"Hafnium","Pd","Kr4d10","4d10","1S0","4d9 2D5/2",1.002,0.004,"L8672c99"
72,"Hf XXVIII",27,45,"Hafnium","Rh","Kr4d9","4d9","2D5/2","4d8 3F4",1.047,0.004,"L8672c99"
72,"Hf XXIX",28,44,"Hafnium","Ru","Kr4d8","4d8","3F4","4d7 4F9/2",1.094,0.004,"L8672c99"
72,"Hf XXX",29,43,"Hafnium","Tc","Kr4d7","4d7","4F9/2","4d6 5D4",1.146,0.004,"L8672c99"
72,"Hf XXXI",30,42,"Hafnium","Mo","Kr4d6","4d6","5D4","4d5 6S5/2",1.195,0.004,"L8672c99"
72,"Hf XXXII",31,41,"Hafnium","Nb","Kr4d5","4d5","6S5/2","4d4 5D0",1.245,0.004,"L8672c99"
72,"Hf XXXIII",32,40,"Hafnium","Zr","Kr4d4","4d4","5D0","4d3 4F3/2",1.311,0.004,"L8672c99"
72,"Hf XXXIV",33,39,"Hafnium","Y","Kr4d3","4d3","4F3/2","4d2 3F2",1.362,0.005,"L8672c99"
72,"Hf XXXV",34,38,"Hafnium","Sr","Kr4d2","4d2","3F2","4d 2D3/2",1.417,0.005,"L8672c99"
72,"Hf XXXVI",35,37,"Hafnium","Rb","Kr4d","4d","2D3/2","4p6 1S0",1.467,0.005,"L8672c99"
72,"Hf XXXVII",36,36,"Hafnium","Kr","Ar3d104s24p6","4p6","1S0","4p5 2P°3/2",1.669,0.005,"L8672c99"
72,"Hf XXXVIII",37,35,"Hafnium","Br","Ar3d104s24p5","4p5","2P°3/2","4p4 3P2",1.719,0.004,"L8672c99"
72,"Hf XXXIX",38,34,"Hafnium","Se","Ar3d104s24p4","4p4","3P2","4p3 4S°3/2",1.776,0.004,"L8672c99"
72,"Hf XL",39,33,"Hafnium","As","Ar3d104s24p3","4p3","4S°3/2","4p2 3P0",1.827,0.004,"L8672c99"