"Z","Species","CS","Occ","Element","Iso_elec","Ground_Shells","Ground_Config","Ground_Level","Ionized_Level","IE","IE_uncertainty","References"
88,"Ra LXXXIV",83,5,"Radium","B","1s22s22p","2p","2P°1/2","2s2 1S0",28.37,0.19,"L8672c99"
88,"Ra LXXXV",84,4,"Radium","Be","1s22s2","2s2","1S0","2s 2S1/2",29.05,0.2,"L8672c99"
88,"Ra LXXXVI",85,3,"Radium","Li","1s22s","2s","2S1/2","1s2 1S0",29.4798,5e-04,"L16264c99"
88,"Ra LXXXVII",86,2,"Radium","He","1s2","1s2","1S0","1s 2S1/2",116.8487,9e-04,"L10054"
88,"Ra LXXXVIII",87,1,"Radium","H","1s","1s","2S1/2",NA,118.9313,0.0019,"L7188"
89,"Ac I",0,89,"Actinium","Ac","Rn6d7s2","6d7s2","2D3/2","6p67s2 1S0",0.005380226,2.4e-08,"L17893"
89,"Ac II",1,88,"Actinium","Ra","Rn7s2","7s2","1S0","6p67s 2S1/2",0.01175,3e-05,"L15123"
89,"Ac III",2,87,"Actinium","Fr","Rn7s","6p67s","2S1/2","6p6 1S0",0.017431,2e-05,"L12354c99"
89,"Ac IV",3,86,"Actinium","Rn","Hg6p6","6p6","1S0","6p5 2P°3/2",0.0448,0.0014,"L13741"
89,"Ac V",4,85,"Actinium","At","Hg6p5","6p5","2P°3/2","6p4 3P2",0.055,0.0019,"L8672c99"
89,"Ac VI",5,84,"Actinium","Po","Hg6p4","6p4","3P2","6p3 4S°3/2",0.067,0.002,"L8672c99"
89,"Ac VII",6,83,"Actinium","Bi","Hg6p3","6p3","4S°3/2","6p2 3P0",0.079,0.002,"L8672c99"
89,"Ac VIII",7,82,"Actinium","Pb","Hg6p2","6p2","3P0","6p 2P°1/2",0.0989,0.0021,"L8672c99"
89,"Ac IX",8,81,"Actinium","Tl","Hg6p","6p","2P°1/2","6s2 1S0",0.1139,0.0022,"L8672c99"
89,"Ac X",9,80,"Actinium","Hg","Xe4f145d106s2","6s2","1S0","6s 2S1/2",0.1439,0.0022,"L8672c99"
89,"Ac XI",10,79,"Actinium","Au","Xe4f145d106s","6s","2S1/2","5d10 1S0",0.1611,0.0024,"L8672c99"
89,"Ac XII",11,78,"Actinium","Pt","Xe4f145d10","5d10","1S0","5d9 2D5/2",0.233,0.0025,"L8672c99"
89,"Ac XIII",12,77,"Actinium","Ir","Xe4f145d9","5d9","2D5/2","5d8 3F4",0.255,0.003,"L8672c99"
89,"Ac XIV",13,76,"Actinium","Os","Xe4f145d8","5d8","3F4","5d7 4F9/2",0.279,0.003,"L8672c99"
89,"Ac XV",14,75,"Actinium","Re","Xe4f145d7","5d7","4F9/2","5d6 5D4",0.305,0.003,"L8672c99"
89,"Ac XVI",15,74,"Actinium","W","Xe4f145d6","5d6","5D4","5d5 6S5/2",0.33,0.003,"L8672c99"
89,"Ac XVII",16,73,"Actinium","Ta","Xe4f145d5","5d5","6S5/2","5d4 5D0",0.355,0.003,"L8672c99"
89,"Ac XVIII",17,72,"Actinium","Hf","Xe4f145d4","5d4","5D0","5d3 4F3/2",0.39,0.003,"L8672c99"
89,"Ac XIX",18,71,"Actinium","Lu","Xe4f145d3","5d3","4F3/2","5d2 3F2",0.416,0.003,"L8672c99"
89,"Ac XX",19,70,"Actinium","Yb","Xe4f145d2","5d2","3F2","5d 2D3/2",0.444,0.004,"L8672c99"
89,"Ac XXI",20,69,"Actinium","Tm","Xe4f145d","5d","2D3/2","4f14 1S0",0.47,0.004,"L8672c99"
89,"Ac XXII",21,68,"Actinium","Er","Xe4f14","4f14","1S0","4f145p5 2P°3/2",0.61,0.03,"L582"
89,"Ac XXIII",22,67,"Actinium","Ho","Cd4f145p5","4f145p5","2P°3/2","4f145p4 3P2",0.64,0.03,"L582"
89,"Ac XXIV",23,66,"Actinium","Dy","Cd4f145p4","4f145p4","3P2","4f145p3 2P°3/2",0.67,0.03,"L582"
89,"Ac XXV",24,65,"Actinium","Tb","Cd4f145p3","4f145p3","2P°3/2","4f145p2 3P0",0.71,0.04,"L582"
89,"Ac XXVI",25,64,"Actinium","Gd","Cd4f145p2","4f145p2","3P0","4f145p 2P°1/2",0.78,0.04,"L582"
89,"Ac XXVII",26,63,"Actinium","Eu","Cd4f145p","4f145p","2P°1/2","4f14 1S0",0.82,0.04,"L582"
89,"Ac XXVIII",27,62,"Actinium","Sm","Cd4f14","4f14","1S0","4f145s 2S1/2",0.92,0.05,"L582"
89,"Ac XXIX",28,61,"Actinium","Pm","Kr4d104f145s","4f145s","2S1/2","4f14 1S0",0.95,0.05,"L582"
89,"Ac XXX",29,60,"Actinium","Nd","Kr4d104f14","4f14","1S0","4f13 2F°7/2",1.03,0.05,"L582"
89,"Ac XXXI",30,59,"Actinium","Pr","Kr4d104f13","4f13","2F°7/2","4f12",1.1,0.05,"L582"
89,"Ac XXXII",31,58,"Actinium","Ce","Kr4d104f12","4f12",NA,"4f11 4I°15/2",1.17,0.06,"L582"
89,"Ac XXXIII",32,57,"Actinium","La","Kr4d104f11","4f11","4I°15/2","4f10 5I8",1.24,0.06,"L582"
89,"Ac XXXIV",33,56,"Actinium","Ba","Kr4d104f10","4f10","5I8","4f9 6H°15/2",1.31,0.07,"L582"
89,"Ac XXXV",34,55,"Actinium","Cs","Kr4d104f9","4f9","6H°15/2","4f8 7F6",1.38,0.07,"L582"
89,"Ac XXXVI",35,54,"Actinium","Xe","Kr4d104f8","4f8","7F6","4f7 8S°7/2",1.46,0.07,"L582"
89,"Ac XXXVII",36,53,"Actinium","I","Kr4d104f7","4f7","8S°7/2","4f6 7F0",1.53,0.08,"L582"
89,"Ac XXXVIII",37,52,"Actinium","Te","Kr4d104f6","4f6","7F0","4f5 6H°5/2",1.61,0.08,"L582"
89,"Ac XXXIX",38,51,"Actinium","Sb","Kr4d104f5","4f5","6H°5/2","4f4 5I4",1.68,0.08,"L582"
89,"Ac XL",39,50,"Actinium","Sn","Kr4d104f4","4f4","5I4","4f3 4I°9/2",1.75,0.09,"L582"
89,"Ac XLI",40,49,"Actinium","In","Kr4d104f3","4f3","4I°9/2","4f2 3H4",1.82,0.09,"L582"
89,"Ac XLII",41,48,"Actinium","Cd","Kr4d104f2","4f2","3H4","4f 2F°5/2",1.9,0.1,"L582"
89,"Ac XLIII",42,47,"Actinium","Ag","Kr4d104f","4f","2F°5/2","4d10 1S0",1.97,0.1,"L582"
89,"Ac XLIV",43,46,"Actinium","Pd","Kr4d10","4d10","1S0","4d9 2D5/2",2.298,0.004,"L8672c99"
89,"Ac XLV",44,45,"Actinium","Rh","Kr4d9","4d9","2D5/2","4d8 3F4",2.362,0.004,"L8672c99"
89,"Ac XLVI",45,44,"Actinium","Ru","Kr4d8","4d8","3F4","4d7 4F9/2",2.43,0.004,"L8672c99"
89,"Ac XLVII",46,43,"Actinium","Tc","Kr4d7","4d7","4F9/2","4d6 5D4",2.503,0.004,"L8672c99"
89,"Ac XLVIII",47,42,"Actinium","Mo","Kr4d6","4d6","5D4","4d5 5/2",2.572,0.004,"L8672c99"
89,"Ac XLIX",48,41,"Actinium","Nb","Kr4d5","4d5","5/2","4d4 5D0",2.639,0.004,"L8672c99"
89,"Ac L",49,40,"Actinium","Zr","Kr4d4","4d4","5D0","4d3 4F3/2",2.762,0.004,"L8672c99"
89,"Ac LI",50,39,"Actinium","Y","Kr4d3","4d3","4F3/2","4d2 3F2",2.833,0.004,"L8672c99"
89,"Ac LII",51,38,"Actinium","Sr","Kr4d2","4d2","3F2","4d 2D3/2",2.908,0.004,"L8672c99"
89,"Ac LIII",52,37,"Actinium","Rb","Kr4d","4d","2D3/2","4p6 1S0",2.98,0.004,"L8672c99"
89,"Ac LIV",53,36,"Actinium","Kr","Ar3d104s24p6","4p6","1S0","4p5 2P°3/2",3.264,0.005,"L8672c99"
89,"Ac LV",54,35,"Actinium","Br","Ar3d104s24p5","4p5","2P°3/2","4p4 3P2",3.334,0.005,"L8672c99"
89,"Ac LVI",55,34,"Actinium","Se","Ar3d104s24p4","4p4","3P2","4p3°3/2",3.409,0.005,"L8672c99"
89,"Ac LVII",56,33,"Actinium","As","Ar3d104s24p3","4p3","°3/2","4p2 3P0",3.479,0.005,"L8672c99"
89,"Ac LVIII",57,32,"Actinium","Ge","Ar3d104s24p2","4p2","3P0","4p 2P°1/2",3.811,0.006,"L8672c99"
89,"Ac LIX",58,31,"Actinium","Ga","Ar3d104s24p","4p","2P°1/2","4s2 1S0",3.893,0.006,"L8672c99"
89,"Ac LX",59,30,"Actinium","Zn","Ar3d104s2","4s2","1S0","4s 2S1/2",4.093,0.007,"L8672c99"
89,"Ac LXI",60,29,"Actinium","Cu","Ar3d104s","4s","2S1/2","3d10 1S0",4.175,0.004,"L10278"
89,"Ac LXII",61,28,"Actinium","Ni","Ar3d10","3d10","1S0","3d9 2D5/2",6.767,0.012,"L8672c99"
89,"Ac LXIII",62,27,"Actinium","Co","Ar3d9","3d9","2D5/2","3d8 3F4",6.923,0.015,"L8672c99"
89,"Ac LXIV",63,26,"Actinium","Fe","Ar3d8","3d8","3F4","3d7 4F9/2",7.088,0.019,"L8672c99"
89,"Ac LXV",64,25,"Actinium","Mn","Ar3d7","3d7","4F9/2","3d6 4",7.265,0.024,"L8672c99"
89,"Ac LXVI",65,24,"Actinium","Cr","Ar3d6","3d6","4","3d5 5/2",7.43,0.03,"L8672c99"
89,"Ac LXVII",66,23,"Actinium","V","Ar3d5","3d5","5/2","3d4 5D0",7.6,0.04,"L8672c99"
89,"Ac LXVIII",67,22,"Actinium","Ti","Ar3d4","3d4","5D0","3d3 4F3/2",7.95,0.04,"L8672c99"
89,"Ac LXIX",68,21,"Actinium","Sc","Ar3d3","3d3","4F3/2","3d2 3F2",8.12,0.05,"L8672c99"
89,"Ac LXX",69,20,"Actinium","Ca","Ar3d2","3d2","3F2","3d 2D3/2",8.31,0.05,"L8672c99"
89,"Ac LXXI",70,19,"Actinium","K","Ar3d","3d","2D3/2","3p6 1S0",8.48,0.06,"L8672c99"
89,"Ac LXXII",71,18,"Actinium","Ar","Ne3s23p6","3p6","1S0","3p5 2P°3/2",8.97,0.06,"L8672c99"
89,"Ac LXXIII",72,17,"Actinium","Cl","Ne3s23p5","3p5","2P°3/2","3p4 3P2",9.12,0.07,"L8672c99"
89,"Ac LXXIV",73,16,"Actinium","S","Ne3s23p4","3p4","3P2","3p3 2P°3/2",9.29,0.09,"L8672c99"
89,"Ac LXXV",74,15,"Actinium","P","Ne3s23p3","3p3","2P°3/2","3p2 3P0",9.44,0.09,"L8672c99"
89,"Ac LXXVI",75,14,"Actinium","Si","Ne3s23p2","3p2","3P0","3p 2P°1/2",10.48,0.1,"L8672c99"
89,"Ac LXXVII",76,13,"Actinium","Al","Ne3s23p","3p","2P°1/2","3s2 1S0",10.66,0.11,"L8672c99"
89,"Ac LXXVIII",77,12,"Actinium","Mg","Ne3s2","3s2","1S0","3s 2S1/2",11.03,0.12,"L8672c99"
89,"Ac LXXIX",78,11,"Actinium","Na","Ne3s","3s","2S1/2","2p6 1S0",11.2,0.12,"L8672c99"
89,"Ac LXXX",79,10,"Actinium","Ne","1s22s22p6","2p6","1S0","2p5 2P°3/2",23.48,0.14,"L8672c99"
89,"Ac LXXXI",80,9,"Actinium","F","1s22s22p5","2p5","2P°3/2","2p4 3P2",23.89,0.15,"L8672c99"
89,"Ac LXXXII",81,8,"Actinium","O","1s22s22p4","2p4","3P2","2p21/22p3/2 0,3/2°3/2",24.34,0.16,"L8672c99"
89,"Ac LXXXIII",82,7,"Actinium","N","1s22s22p3","2p21/22p3/2","0,3/2°3/2","2p2 3P0",24.76,0.17,"L8672c99"
89,"Ac LXXXIV",83,6,"Actinium","C","1s22s22p2","2p2","3P0","2p 2P°1/2",28.61,0.19,"L8672c99"
89,"Ac LXXXV",84,5,"Actinium","B","1s22s22p","2p","2P°1/2","2s2 1S0",29.16,0.2,"L8672c99"
89,"Ac LXXXVI",85,4,"Actinium","Be","1s22s2","2s2","1S0","2s 2S1/2",29.85,0.22,"L8672c99"
89,"Ac LXXXVII",86,3,"Actinium","Li","1s22s","2s","2S1/2","1s2 1S0",30.2931,5e-04,"L16264c99"
89,"Ac LXXXVIII",87,2,"Actinium","He","1s2","1s2","1S0","1s 2S1/2",119.9386,0.001,"L10054"
89,"Ac LXXXIX",88,1,"Actinium","H","1s","1s","2S1/2",NA,122.0629,0.002,"L7188"
90,"Th I",0,90,"Thorium","Th","Rn6d27s2","6d27s2","3F2","6d7s2 2D3/2",0.0063067,2.5e-07,"L15992"
90,"Th II",1,89,"Thorium","Ac","Rn6d7s2","6d7s2","2D3/2","5f6d 3H°4",0.0121,2e-04,"L18620"
90,"Th III",2,88,"Thorium","Ra","Rn5f6d","5f6d","3H°4","5f6p6 2F°5/2",0.01832,5e-05,"L14620,L5541"
90,"Th IV",3,87,"Thorium","Fr","Rn5f","5f6p6","2F°5/2","6p6 1S0",0.028648,2.5e-05,"L14620,L10110"
90,"Th V",4,86,"Thorium","Rn","Hg6p6","6p6","1S0","6p5 2P°3/2",0.058,0.0019,"L8672c99"
90,"Th VI",5,85,"Thorium","At","Hg6p5","6p5","2P°3/2","6p4 3P2",0.0691,0.002,"L8672c99"
90,"Th VII",6,84,"Thorium","Po","Hg6p4","6p4","3P2","6p3 4S°3/2",0.082,0.002,"L8672c99"
90,"Th VIII",7,83,"Thorium","Bi","Hg6p3","6p3","4S°3/2","6p2 3P0",0.095,0.0021,"L8672c99"
90,"Th IX",8,82,"Thorium","Pb","Hg6p2","6p2","3P0","6p 2P°1/2",0.118,0.0022,"L8672c99"
90,"Th X",9,81,"Thorium","Tl","Hg6p","6p","2P°1/2","6s2 1S0",0.133,0.0022,"L8672c99"
90,"Th XI",10,80,"Thorium","Hg","Xe4f145d106s2","6s2","1S0","6s 2S1/2",0.165,0.0024,"L8672c99"
90,"Th XII",11,79,"Thorium","Au","Xe4f145d106s","6s","2S1/2","5d10 1S0",0.181,0.0025,"L8672c99"
90,"Th XIII",12,78,"Thorium","Pt","Xe4f145d10","5d10","1S0","5d9 2D5/2",0.262,0.003,"L8672c99"
90,"Th XIV",13,77,"Thorium","Ir","Xe4f145d9","5d9","2D5/2","5d8 3F4",0.285,0.003,"L8672c99"
90,"Th XV",14,76,"Thorium","Os","Xe4f145d8","5d8","3F4","5d7 4F9/2",0.31,0.003,"L8672c99"
90,"Th XVI",15,75,"Thorium","Re","Xe4f145d7","5d7","4F9/2","5d6 5D4",0.336,0.003,"L8672c99"
90,"Th XVII",16,74,"Thorium","W","Xe4f145d6","5d6","5D4","5d5 6S5/2",0.362,0.003,"L8672c99"
90,"Th XVIII",17,73,"Thorium","Ta","Xe4f145d5","5d5","6S5/2","5d4 5D0",0.389,0.003,"L8672c99"
90,"Th XIX",18,72,"Thorium","Hf","Xe4f145d4","5d4","5D0","5d3 4F3/2",0.424,0.003,"L8672c99"
90,"Th XX",19,71,"Thorium","Lu","Xe4f145d3","5d3","4F3/2","5d2 3F2",0.451,0.004,"L8672c99"
90,"Th XXI",20,70,"Thorium","Yb","Xe4f145d2","5d2","3F2","5d 2D3/2",0.48,0.004,"L8672c99"
90,"Th XXII",21,69,"Thorium","Tm","Xe4f145d","5d","2D3/2","4f14 1S0",0.508,0.004,"L8672c99"
90,"Th XXIII",22,68,"Thorium","Er","Xe4f14","4f14","1S0","4f145p5 2P°3/2",0.65,0.04,"L582"
90,"Th XXIV",23,67,"Thorium","Ho","Cd4f145p5","4f145p5","2P°3/2","4f145p4 3P2",0.68,0.03,"L582"
90,"Th XXV",24,66,"Thorium","Dy","Cd4f145p4","4f145p4","3P2","4f145p3 2P°3/2",0.72,0.04,"L582"
90,"Th XXVI",25,65,"Thorium","Tb","Cd4f145p3","4f145p3","2P°3/2","4f145p2 3P0",0.75,0.04,"L582"
90,"Th XXVII",26,64,"Thorium","Gd","Cd4f145p2","4f145p2","3P0","4f145p 2P°1/2",0.83,0.04,"L582"
90,"Th XXVIII",27,63,"Thorium","Eu","Cd4f145p","4f145p","2P°1/2","4f14 1S0",0.87,0.04,"L582"
90,"Th XXIX",28,62,"Thorium","Sm","Cd4f14","4f14","1S0","4f145s 2S1/2",0.97,0.05,"L582"
90,"Th XXX",29,61,"Thorium","Pm","Kr4d104f145s","4f145s","2S1/2","4f14 1S0",1.01,0.05,"L582"
90,"Th XXXI",30,60,"Thorium","Nd","Kr4d104f14","4f14","1S0","4f13 2F°7/2",1.09,0.05,"L582"
90,"Th XXXII",31,59,"Thorium","Pr","Kr4d104f13","4f13","2F°7/2","4f12",1.16,0.06,"L582"
90,"Th XXXIII",32,58,"Thorium","Ce","Kr4d104f12","4f12",NA,"4f11 4I°15/2",1.24,0.06,"L582"
90,"Th XXXIV",33,57,"Thorium","La","Kr4d104f11","4f11","4I°15/2","4f10 5I8",1.31,0.06,"L582"
90,"Th XXXV",34,56,"Thorium","Ba","Kr4d104f10","4f10","5I8","4f9 6H°15/2",1.38,0.07,"L582"
90,"Th XXXVI",35,55,"Thorium","Cs","Kr4d104f9","4f9","6H°15/2","4f8 7F6",1.46,0.07,"L582"
90,"Th XXXVII",36,54,"Thorium","Xe","Kr4d104f8","4f8","7F6","4f7 8S°7/2",1.53,0.08,"L582"
90,"Th XXXVIII",37,53,"Thorium","I","Kr4d104f7","4f7","8S°7/2","4f6 7F0",1.6,0.08,"L582"
90,"Th XXXIX",38,52,"Thorium","Te","Kr4d104f6","4f6","7F0","4f5 6H°5/2",1.68,0.08,"L582"
90,"Th XL",39,51,"Thorium","Sb","Kr4d104f5","4f5","6H°5/2","4f4 5I4",1.76,0.09,"L582"
90,"Th XLI",40,50,"Thorium","Sn","Kr4d104f4","4f4","5I4","4f3 4I°9/2",1.83,0.09,"L582"
90,"Th XLII",41,49,"Thorium","In","Kr4d104f3","4f3","4I°9/2","4f2 3H4",1.91,0.1,"L582"
90,"Th XLIII",42,48,"Thorium","Cd","Kr4d104f2","4f2","3H4","4f 2F°5/2",1.98,0.1,"L582"
90,"Th XLIV",43,47,"Thorium","Ag","Kr4d104f","4f","2F°5/2","4d10 1S0",2.06,0.1,"L582"
90,"Th XLV",44,46,"Thorium","Pd","Kr4d10","4d10","1S0","4d9 2D5/2",2.39,0.004,"L8672c99"
90,"Th XLVI",45,45,"Thorium","Rh","Kr4d9","4d9","2D5/2","4d8 3F4",2.455,0.004,"L8672c99"
90,"Th XLVII",46,44,"Thorium","Ru","Kr4d8","4d8","3F4","4d7 4F9/2",2.524,0.004,"L8672c99"
90,"Th XLVIII",47,43,"Thorium","Tc","Kr4d7","4d7","4F9/2","4d6 5D4",2.598,0.004,"L8672c99"
90,"Th XLIX",48,42,"Thorium","Mo","Kr4d6","4d6","5D4","4d5 5/2",2.669,0.004,"L8672c99"
90,"Th L",49,41,"Thorium","Nb","Kr4d5","4d5","5/2","4d4 5D0",2.737,0.004,"L8672c99"
90,"Th LI",50,40,"Thorium","Zr","Kr4d4","4d4","5D0","4d3 4F3/2",2.864,0.004,"L8672c99"
90,"Th LII",51,39,"Thorium","Y","Kr4d3","4d3","4F3/2","4d2 3F2",2.935,0.004,"L8672c99"
90,"Th LIII",52,38,"Thorium","Sr","Kr4d2","4d2","3F2","4d 2D3/2",3.013,0.004,"L8672c99"
90,"Th LIV",53,37,"Thorium","Rb","Kr4d","4d","2D3/2","4p6 1S0",3.086,0.005,"L8672c99"
90,"Th LV",54,36,"Thorium","Kr","Ar3d104s24p6","4p6","1S0","4p5 2P°3/2",3.375,0.005,"L8672c99"
90,"Th LVI",55,35,"Thorium","Br","Ar3d104s24p5","4p5","2P°3/2","4p4 3P2",3.445,0.005,"L8672c99"
90,"Th LVII",56,34,"Thorium","Se","Ar3d104s24p4","4p4","3P2","4p3°3/2",3.522,0.005,"L8672c99"
90,"Th LVIII",57,33,"Thorium","As","Ar3d104s24p3","4p3","°3/2","4p2 3P0",3.593,0.006,"L8672c99"
90,"Th LIX",58,32,"Thorium","Ge","Ar3d104s24p2","4p2","3P0","4p 2P°1/2",3.943,0.006,"L8672c99"
90,"Th LX",59,31,"Thorium","Ga","Ar3d104s24p","4p","2P°1/2","4s2 1S0",4.025,0.007,"L8672c99"
90,"Th LXI",60,30,"Thorium","Zn","Ar3d104s2","4s2","1S0","4s 2S1/2",4.23,0.01,"L8672c99"
90,"Th LXII",61,29,"Thorium","Cu","Ar3d104s","4s","2S1/2","3d10 1S0",4.313,0.004,"L10278"
90,"Th LXIII",62,28,"Thorium","Ni","Ar3d10","3d10","1S0","3d9 2D5/2",6.972,0.015,"L8672c99"
90,"Th LXIV",63,27,"Thorium","Co","Ar3d9","3d9","2D5/2","3d8 3F4",7.13,0.019,"L8672c99"
90,"Th LXV",64,26,"Thorium","Fe","Ar3d8","3d8","3F4","3d7 4F9/2",7.299,0.024,"L8672c99"
90,"Th LXVI",65,25,"Thorium","Mn","Ar3d7","3d7","4F9/2","3d6 4",7.48,0.03,"L8672c99"
90,"Th LXVII",66,24,"Thorium","Cr","Ar3d6","3d6","4","3d5 5/2",7.65,0.04,"L8672c99"
90,"Th LXVIII",67,23,"Thorium","V","Ar3d5","3d5","5/2","3d4 5D0",7.81,0.04,"L8672c99"
90,"Th LXIX",68,22,"Thorium","Ti","Ar3d4","3d4","5D0","3d3 4F3/2",8.18,0.05,"L8672c99"
90,"Th LXX",69,21,"Thorium","Sc","Ar3d3","3d3","4F3/2","3d2 3F2",8.35,0.05,"L8672c99"
90,"Th LXXI",70,20,"Thorium","Ca","Ar3d2","3d2","3F2","3d 2D3/2",8.55,0.06,"L8672c99"
90,"Th LXXII",71,19,"Thorium","K","Ar3d","3d","2D3/2","3p6 1S0",8.72,0.06,"L8672c99"
90,"Th LXXIII",72,18,"Thorium","Ar","Ne3s23p6","3p6","1S0","3p5 2P°3/2",9.22,0.07,"L8672c99"
90,"Th LXXIV",73,17,"Thorium","Cl","Ne3s23p5","3p5","2P°3/2","3p4 3P2",9.37,0.09,"L8672c99"
90,"Th LXXV",74,16,"Thorium","S","Ne3s23p4","3p4","3P2","3p3 2P°3/2",9.54,0.09,"L8672c99"
90,"Th LXXVI",75,15,"Thorium","P","Ne3s23p3","3p3","2P°3/2","3p2 3P0",9.69,0.1,"L8672c99"
90,"Th LXXVII",76,14,"Thorium","Si","Ne3s23p2","3p2","3P0","3p 2P°1/2",10.79,0.11,"L8672c99"
90,"Th LXXVIII",77,13,"Thorium","Al","Ne3s23p","3p","2P°1/2","3s2 1S0",10.97,0.12,"L8672c99"
90,"Th LXXIX",78,12,"Thorium","Mg","Ne3s2","3s2","1S0","3s 2S1/2",11.34,0.12,"L8672c99"
90,"Th LXXX",79,11,"Thorium","Na","Ne3s","3s","2S1/2","2p6 1S0",11.51,0.14,"L8672c99"
90,"Th LXXXI",80,10,"Thorium","Ne","1s22s22p6","2p6","1S0","2p5 2P°3/2",24.06,0.15,"L8672c99"
90,"Th LXXXII",81,9,"Thorium","F","1s22s22p5","2p5","2P°3/2","2p4 3P2",24.48,0.16,"L8672c99"
90,"Th LXXXIII",82,8,"Thorium","O","1s22s22p4","2p4","3P2","2p21/22p3/2 0,3/2°3/2",24.94,0.17,"L8672c99"
90,"Th LXXXIV",83,7,"Thorium","N","1s22s22p3","2p21/22p3/2","0,3/2°3/2","2p2 3P0",25.36,0.19,"L8672c99"
90,"Th LXXXV",84,6,"Thorium","C","1s22s22p2","2p2","3P0","2p 2P°1/2",29.41,0.2,"L8672c99"
90,"Th LXXXVI",85,5,"Thorium","B","1s22s22p","2p","2P°1/2","2s2 1S0",29.97,0.22,"L8672c99"
90,"Th LXXXVII",86,4,"Thorium","Be","1s22s2","2s2","1S0","2s 2S1/2",30.68,0.24,"L8672c99"
90,"Th LXXXVIII",87,3,"Thorium","Li","1s22s","2s","2S1/2","1s2 1S0",31.1228,6e-04,"L16264c99"
90,"Th LXXXIX",88,2,"Thorium","He","1s2","1s2","1S0","1s 2S1/2",123.0864,0.001,"L10054"
90,"Th XC",89,1,"Thorium","H","1s","1s","2S1/2",NA,125.2534,0.0022,"L7188"
91,"Pa I",0,91,"Protactinium","Pa","Rn5f26d7s2","5f26d7s2","4K11/2","5f27s2 3H4",0.00589,0.00012,"L16359"
91,"Pa II",1,90,"Protactinium","Th","Rn5f27s2","5f27s2","3H4","5f26d 4I11/2",0.0119,4e-04,"L13741c99"
91,"Pa III",2,89,"Protactinium","Ac","Rn5f26d","5f26p66d","4I11/2","5f26p6 3H4",0.0186,4e-04,"L13741c99"
91,"Pa IV",3,88,"Protactinium","Ra","Rn5f2","5f26p6","3H4","5f6p6 2F°5/2",0.0309,4e-04,"L13741c99"
91,"Pa V",4,87,"Protactinium","Fr","Rn5f","5f6p6","2F°5/2","6p6 1S0",0.0443,4e-04,"L12354c99"
91,"Pa VI",5,86,"Protactinium","Rn","Hg6p6","6p6","1S0","6p5 2P°3/2",0.072,0.002,"L8672c99"
91,"Pa VII",6,85,"Protactinium","At","Hg6p5","6p5","2P°3/2","6p4 3P2",0.0851,0.002,"L8672c99"
91,"Pa VIII",7,84,"Protactinium","Po","Hg6p4","6p4","3P2","6p3 4S°3/2",0.0989,0.0021,"L8672c99"
91,"Pa IX",8,83,"Protactinium","Bi","Hg6p3","6p3","4S°3/2","6p2 3P0",0.111,0.0022,"L8672c99"
91,"Pa X",9,82,"Protactinium","Pb","Hg6p2","6p2","3P0","6p 2P°1/2",0.137,0.0022,"L8672c99"
91,"Pa XI",10,81,"Protactinium","Tl","Hg6p","6p","2P°1/2","6s2 1S0",0.153,0.0024,"L8672c99"
91,"Pa XII",11,80,"Protactinium","Hg","Xe4f145d106s2","6s2","1S0","6s 2S1/2",0.187,0.0025,"L8672c99"
91,"Pa XIII",12,79,"Protactinium","Au","Xe4f145d106s","6s","2S1/2","5d10 1S0",0.203,0.003,"L8672c99"
91,"Pa XIV",13,78,"Protactinium","Pt","Xe4f145d10","5d10","1S0","5d9 2D5/2",0.292,0.003,"L8672c99"
91,"Pa XV",14,77,"Protactinium","Ir","Xe4f145d9","5d9","2D5/2","5d8 3F4",0.316,0.003,"L8672c99"
91,"Pa XVI",15,76,"Protactinium","Os","Xe4f145d8","5d8","3F4","5d7 4F9/2",0.342,0.003,"L8672c99"
91,"Pa XVII",16,75,"Protactinium","Re","Xe4f145d7","5d7","4F9/2","5d6 5D4",0.369,0.003,"L8672c99"
91,"Pa XVIII",17,74,"Protactinium","W","Xe4f145d6","5d6","5D4","5d5 6S5/2",0.395,0.003,"L8672c99"
91,"Pa XIX",18,73,"Protactinium","Ta","Xe4f145d5","5d5","6S5/2","5d4 5D0",0.423,0.003,"L8672c99"
91,"Pa XX",19,72,"Protactinium","Hf","Xe4f145d4","5d4","5D0","5d3 4F3/2",0.46,0.004,"L8672c99"
91,"Pa XXI",20,71,"Protactinium","Lu","Xe4f145d3","5d3","4F3/2","5d2 3F2",0.488,0.004,"L8672c99"
91,"Pa XXII",21,70,"Protactinium","Yb","Xe4f145d2","5d2","3F2","5d 2D3/2",0.518,0.004,"L8672c99"
91,"Pa XXIII",22,69,"Protactinium","Tm","Xe4f145d","5d","2D3/2","4f14 1S0",0.546,0.004,"L8672c99"
91,"Pa XXIV",23,68,"Protactinium","Er","Xe4f14","4f14","1S0","4f145p5 2P°3/2",0.69,0.04,"L582"
91,"Pa XXV",24,67,"Protactinium","Ho","Cd4f145p5","4f145p5","2P°3/2","4f145p4 3P2",0.72,0.04,"L582"
91,"Pa XXVI",25,66,"Protactinium","Dy","Cd4f145p4","4f145p4","3P2","4f145p3 2P°3/2",0.76,0.04,"L582"
91,"Pa XXVII",26,65,"Protactinium","Tb","Cd4f145p3","4f145p3","2P°3/2","4f145p2 3P0",0.79,0.04,"L582"
91,"Pa XXVIII",27,64,"Protactinium","Gd","Cd4f145p2","4f145p2","3P0","4f145p 2P°1/2",0.88,0.04,"L582"
91,"Pa XXIX",28,63,"Protactinium","Eu","Cd4f145p","4f145p","2P°1/2","4f14 1S0",0.92,0.05,"L582"
91,"Pa XXX",29,62,"Protactinium","Sm","Cd4f14","4f14","1S0","4f145s 2S1/2",1.02,0.05,"L582"
91,"Pa XXXI",30,61,"Protactinium","Pm","Kr4d104f145s","4f145s","2S1/2","4f14 1S0",1.06,0.05,"L582"
91,"Pa XXXII",31,60,"Protactinium","Nd","Kr4d104f14","4f14","1S0","4f13 2F°7/2",1.15,0.06,"L582"