"Z","Species","CS","Occ","Element","Iso_elec","Ground_Shells","Ground_Config","Ground_Level","Ionized_Level","IE","IE_uncertainty","References"
98,"Cf XXV",24,74,"Californium","W","Xe4f145d6","5d6","5D4","5d5 6S5/2",0.662,0.004,"L8672c99"
98,"Cf XXVI",25,73,"Californium","Ta","Xe4f145d5","5d5","6S5/2","5d4 5D0",0.695,0.004,"L8672c99"
98,"Cf XXVII",26,72,"Californium","Hf","Xe4f145d4","5d4","5D0","5d3 4F3/2",0.744,0.004,"L8672c99"
98,"Cf XXVIII",27,71,"Californium","Lu","Xe4f145d3","5d3","4F3/2","5d2 3F2",0.778,0.004,"L8672c99"
98,"Cf XXIX",28,70,"Californium","Yb","Xe4f145d2","5d2","3F2","5d 2D3/2",0.814,0.004,"L8672c99"
98,"Cf XXX",29,69,"Californium","Tm","Xe4f145d","5d","2D3/2","4f14 1S0",0.847,0.004,"L8672c99"
98,"Cf XXXI",30,68,"Californium","Er","Xe4f14","4f14","1S0","4f145p5 2P°3/2",1.01,0.05,"L582"
98,"Cf XXXII",31,67,"Californium","Ho","Cd4f145p5","4f145p5","2P°3/2","4f145p4 3P2",1.05,0.05,"L582"
98,"Cf XXXIII",32,66,"Californium","Dy","Cd4f145p4","4f145p4","3P2","4f145p3 2P°3/2",1.09,0.05,"L582"
98,"Cf XXXIV",33,65,"Californium","Tb","Cd4f145p3","4f145p3","2P°3/2","4f145p2 3P0",1.12,0.06,"L582"
98,"Cf XXXV",34,64,"Californium","Gd","Cd4f145p2","4f145p2","3P0","4f145p 2P°1/2",1.25,0.06,"L582"
98,"Cf XXXVI",35,63,"Californium","Eu","Cd4f145p","4f145p","2P°1/2","4f14 1S0",1.3,0.06,"L582"
98,"Cf XXXVII",36,62,"Californium","Sm","Cd4f14","4f14","1S0","4f145s 2S1/2",1.42,0.07,"L582"
98,"Cf XXXVIII",37,61,"Californium","Pm","Kr4d104f145s","4f145s","2S1/2","4f14 1S0",1.47,0.07,"L582"
98,"Cf XXXIX",38,60,"Californium","Nd","Kr4d104f14","4f14","1S0","4f13 2F°7/2",1.62,0.08,"L582"
98,"Cf XL",39,59,"Californium","Pr","Kr4d104f13","4f13","2F°7/2","4f12",1.7,0.09,"L582"
98,"Cf XLI",40,58,"Californium","Ce","Kr4d104f12","4f12",NA,"4f11 4I°15/2",1.79,0.09,"L582"
98,"Cf XLII",41,57,"Californium","La","Kr4d104f11","4f11","4I°15/2","4f10 5I8",1.88,0.1,"L582"
98,"Cf XLIII",42,56,"Californium","Ba","Kr4d104f10","4f10","5I8","4f9 6H°15/2",1.96,0.1,"L582"
98,"Cf XLIV",43,55,"Californium","Cs","Kr4d104f9","4f9","6H°15/2","4f8 7F6",2.05,0.1,"L582"
98,"Cf XLV",44,54,"Californium","Xe","Kr4d104f8","4f8","7F6","4f7 8S°7/2",2.13,0.11,"L582"
98,"Cf XLVI",45,53,"Californium","I","Kr4d104f7","4f7","8S°7/2","4f6 7F0",2.22,0.11,"L582"
98,"Cf XLVII",46,52,"Californium","Te","Kr4d104f6","4f6","7F0","4f5 6H°5/2",2.32,0.12,"L582"
98,"Cf XLVIII",47,51,"Californium","Sb","Kr4d104f5","4f5","6H°5/2","4f4 5I4",2.41,0.12,"L582"
98,"Cf XLIX",48,50,"Californium","Sn","Kr4d104f4","4f4","5I4","4f3 4I°9/2",2.49,0.12,"L582"
98,"Cf L",49,49,"Californium","In","Kr4d104f3","4f3","4I°9/2","4f2 3H4",2.58,0.12,"L582"
98,"Cf LI",50,48,"Californium","Cd","Kr4d104f2","4f2","3H4","4f 2F°5/2",2.67,0.14,"L582"
98,"Cf LII",51,47,"Californium","Ag","Kr4d104f","4f","2F°5/2","4d10 1S0",2.75,0.14,"L582"
98,"Cf LIII",52,46,"Californium","Pd","Kr4d10","4d10","1S0","4d9 2D5/2",3.186,0.004,"L8672c99"
98,"Cf LIV",53,45,"Californium","Rh","Kr4d9","4d9","2D5/2","4d8 3F4",3.261,0.005,"L8672c99"
98,"Cf LV",54,44,"Californium","Ru","Kr4d8","4d8","3F4","4d7 4F9/2",3.34,0.005,"L8672c99"
98,"Cf LVI",55,43,"Californium","Tc","Kr4d7","4d7","4F9/2","4d6 5D4",3.424,0.005,"L8672c99"
98,"Cf LVII",56,42,"Californium","Mo","Kr4d6","4d6","5D4","4d5 5/2",3.503,0.005,"L8672c99"
98,"Cf LVIII",57,41,"Californium","Nb","Kr4d5","4d5","5/2","4d4 5D0",3.581,0.006,"L8672c99"
98,"Cf LIX",58,40,"Californium","Zr","Kr4d4","4d4","5D0","4d3 4F3/2",3.747,0.006,"L8672c99"
98,"Cf LX",59,39,"Californium","Y","Kr4d3","4d3","4F3/2","4d2 3F2",3.828,0.007,"L8672c99"
98,"Cf LXI",60,38,"Californium","Sr","Kr4d2","4d2","3F2","4d 2D3/2",3.915,0.01,"L8672c99"
98,"Cf LXII",61,37,"Californium","Rb","Kr4d","4d","2D3/2","4p6 1S0",3.998,0.012,"L8672c99"
98,"Cf LXIII",62,36,"Californium","Kr","Ar3d104s24p6","4p6","1S0","4p5 2P°3/2",4.329,0.015,"L8672c99"
98,"Cf LXIV",63,35,"Californium","Br","Ar3d104s24p5","4p5","2P°3/2","4p4 3P2",4.407,0.019,"L8672c99"
98,"Cf LXV",64,34,"Californium","Se","Ar3d104s24p4","4p4","3P2","4p3°3/2",4.494,0.024,"L8672c99"
98,"Cf LXVI",65,33,"Californium","As","Ar3d104s24p3","4p3","°3/2","4p2 3P0",4.57,0.03,"L8672c99"
98,"Cf LXVII",66,32,"Californium","Ge","Ar3d104s24p2","4p2","3P0","4p 2P°1/2",5.1,0.04,"L8672c99"
98,"Cf LXVIII",67,31,"Californium","Ga","Ar3d104s24p","4p","2P°1/2","4s2 1S0",5.19,0.04,"L8672c99"
98,"Cf LXIX",68,30,"Californium","Zn","Ar3d104s2","4s2","1S0","4s 2S1/2",5.43,0.05,"L8672c99"
98,"Cf LXX",69,29,"Californium","Cu","Ar3d104s","4s","2S1/2","3d10 1S0",5.52,0.05,"L8672c99"
98,"Cf LXXI",70,28,"Californium","Ni","Ar3d10","3d10","1S0","3d9 2D5/2",8.73,0.06,"L8672c99"
98,"Cf LXXII",71,27,"Californium","Co","Ar3d9","3d9","2D5/2","3d8 3F4",8.9,0.06,"L8672c99"
98,"Cf LXXIII",72,26,"Californium","Fe","Ar3d8","3d8","3F4","3d7 4F9/2",9.09,0.07,"L8672c99"
98,"Cf LXXIV",73,25,"Californium","Mn","Ar3d7","3d7","4F9/2","3d6 4",9.29,0.09,"L8672c99"
98,"Cf LXXV",74,24,"Californium","Cr","Ar3d6","3d6","4","3d5 5/2",9.48,0.09,"L8672c99"
98,"Cf LXXVI",75,23,"Californium","V","Ar3d5","3d5","5/2","3d4 5D0",9.66,0.1,"L8672c99"
98,"Cf LXXVII",76,22,"Californium","Ti","Ar3d4","3d4","5D0","3d3 4F3/2",10.14,0.11,"L8672c99"
98,"Cf LXXVIII",77,21,"Californium","Sc","Ar3d3","3d3","4F3/2","3d2 3F2",10.33,0.12,"L8672c99"
98,"Cf LXXIX",78,20,"Californium","Ca","Ar3d2","3d2","3F2","3d 2D3/2",10.55,0.12,"L8672c99"
98,"Cf LXXX",79,19,"Californium","K","Ar3d","3d","2D3/2","3p6 1S0",10.74,0.14,"L8672c99"
98,"Cf LXXXI",80,18,"Californium","Ar","Ne3s23p6","3p6","1S0","3p5 2P°3/2",11.3,0.15,"L8672c99"
98,"Cf LXXXII",81,17,"Californium","Cl","Ne3s23p5","3p5","2P°3/2","3p4 3P2",11.47,0.16,"L8672c99"
98,"Cf LXXXIII",82,16,"Californium","S","Ne3s23p4","3p4","3P2","3p3 2P°3/2",11.65,0.17,"L8672c99"
98,"Cf LXXXIV",83,15,"Californium","P","Ne3s23p3","3p3","2P°3/2","3p2 3P0",11.82,0.19,"L8672c99"
98,"Cf LXXXV",84,14,"Californium","Si","Ne3s23p2","3p2","3P0","3p 2P°1/2",13.45,0.2,"L8672c99"
98,"Cf LXXXVI",85,13,"Californium","Al","Ne3s23p","3p","2P°1/2","3s2 1S0",13.66,0.22,"L8672c99"
98,"Cf LXXXVII",86,12,"Californium","Mg","Ne3s2","3s2","1S0","3s 2S1/2",14.08,0.24,"L8672c99"
98,"Cf LXXXVIII",87,11,"Californium","Na","Ne3s","3s","2S1/2","2p6 1S0",14.28,0.25,"L8672c99"
98,"Cf LXXXIX",88,10,"Californium","Ne","1s22s22p6","2p6","1S0","2p5 2P°3/2",29,0.3,"L8672c99"
98,"Cf XC",89,9,"Californium","F","1s22s22p5","2p5","2P°3/2","2p4 3P2",29.5,0.3,"L8672c99"
98,"Cf XCI",90,8,"Californium","O","1s22s22p4","2p4","3P2","2p21/22p3/2 0,3/2°3/2",30,0.3,"L8672c99"
98,"Cf XCII",91,7,"Californium","N","1s22s22p3","2p21/22p3/2","0,3/2°3/2","2p2 3P0",30.5,0.3,"L8672c99"
98,"Cf XCIII",92,6,"Californium","C","1s22s22p2","2p2","3P0","2p 2P°1/2",36.5,0.4,"L8672c99"
98,"Cf XCIV",93,5,"Californium","B","1s22s22p","2p","2P°1/2","2s2 1S0",37.1,0.4,"L8672c99"
98,"Cf XCV",94,4,"Californium","Be","1s22s2","2s2","1S0","2s 2S1/2",37.9,0.4,"L8672c99"
98,"Cf XCVI",95,3,"Californium","Li","1s22s","2s","2S1/2","1s2 1S0",38.4435,0.001,"L16264c99"
98,"Cf XCVII",96,2,"Californium","He","1s2","1s2","1S0","1s 2S1/2",150.5793,0.0014,"L10054"
98,"Cf XCVIII",97,1,"Californium","H","1s","1s","2S1/2",NA,153.124,0.005,"L7188"
99,"Es I",0,99,"Einsteinium","Es","Rn5f117s2","5f117s2","4I°15/2","5f117s 5I°8",0.00636758,2.5e-07,"L7765"
99,"Es II",1,98,"Einsteinium","Cf","Rn5f117s","5f117s","5I°8","5f11 4I°15/2",0.0122,4e-04,"L13741c99"
99,"Es III",2,97,"Einsteinium","Bk","Rn5f11","5f11","4I°15/2","5f10 5I8",0.0227,4e-04,"L13741c99"
99,"Es IV",3,96,"Einsteinium","Cm","Rn5f10","5f10","5I8","5f9 6H°15/2",0.0388,4e-04,"L13741c99"
99,"Es V",4,95,"Einsteinium","Am","Rn5f9","5f9","6H°15/2","5f8 7F6",0.0541,0.0019,"L8672c99"
99,"Es VI",5,94,"Einsteinium","Pu","Rn5f8","5f8","7F6","5f7 8S°7/2",0.071,0.002,"L8672c99"
99,"Es VII",6,93,"Einsteinium","Np","Rn5f7","5f7","8S°7/2","5f6 7F0",0.097,0.002,"L8672c99"
99,"Es VIII",7,92,"Einsteinium","U","Rn5f6","5f6","7F0","5f5 6H°5/2",0.1129,0.0021,"L8672c99"
99,"Es IX",8,91,"Einsteinium","Pa","Rn5f5","5f5","6H°5/2","5f4 5I4",0.137,0.0022,"L8672c99"
99,"Es X",9,90,"Einsteinium","Th","Rn5f4","5f4","5I4","5f76p2",0.157,0.007,"L582"
99,"Es XI",10,89,"Einsteinium","Ac","Hg5f76p2","5f76p2","°","5f66p2",0.18,0.009,"L582"
99,"Es XII",11,88,"Einsteinium","Ra","Hg5f66p2","5f66p2",NA,"5f56p2°",0.206,0.01,"L582"
99,"Es XIII",12,87,"Einsteinium","Fr","Hg5f56p2","5f56p2","°","5f46p2",0.231,0.011,"L582"
99,"Es XIV",13,86,"Einsteinium","Rn","Hg5f46p2","5f46p2",NA,"5f46p°",0.252,0.012,"L582"
99,"Es XV",14,85,"Einsteinium","At","Hg5f46p","5f46p","°","5f4",0.27,0.014,"L582"
99,"Es XVI",15,84,"Einsteinium","Po","Hg5f4","5f4",NA,"5f3°",0.294,0.015,"L582"
99,"Es XVII",16,83,"Einsteinium","Bi","Hg5f3","5f3","°","5f2",0.317,0.016,"L582"
99,"Es XVIII",17,82,"Einsteinium","Pb","Hg5f2","5f2",NA,"5f 2F°5/2",0.342,0.017,"L582"
99,"Es XIX",18,81,"Einsteinium","Tl","Hg5f","5f","2F°5/2","6s2 1S0",0.367,0.019,"L582"
99,"Es XX",19,80,"Einsteinium","Hg","Xe4f145d106s2","6s2","1S0","6s 2S1/2",0.398,0.004,"L8672c99"
99,"Es XXI",20,79,"Einsteinium","Au","Xe4f145d106s","6s","2S1/2","5d10 1S0",0.421,0.004,"L8672c99"
99,"Es XXII",21,78,"Einsteinium","Pt","Xe4f145d10","5d10","1S0","5d9 2D5/2",0.576,0.004,"L8672c99"
99,"Es XXIII",22,77,"Einsteinium","Ir","Xe4f145d9","5d9","2D5/2","5d8 3F4",0.606,0.004,"L8672c99"
99,"Es XXIV",23,76,"Einsteinium","Os","Xe4f145d8","5d8","3F4","5d7 4F9/2",0.638,0.004,"L8672c99"
99,"Es XXV",24,75,"Einsteinium","Re","Xe4f145d7","5d7","4F9/2","5d6 5D4",0.672,0.004,"L8672c99"
99,"Es XXVI",25,74,"Einsteinium","W","Xe4f145d6","5d6","5D4","5d5 6S5/2",0.705,0.004,"L8672c99"
99,"Es XXVII",26,73,"Einsteinium","Ta","Xe4f145d5","5d5","6S5/2","5d4 5D0",0.738,0.004,"L8672c99"
99,"Es XXVIII",27,72,"Einsteinium","Hf","Xe4f145d4","5d4","5D0","5d3 4F3/2",0.79,0.004,"L8672c99"
99,"Es XXIX",28,71,"Einsteinium","Lu","Xe4f145d3","5d3","4F3/2","5d2 3F2",0.824,0.004,"L8672c99"
99,"Es XXX",29,70,"Einsteinium","Yb","Xe4f145d2","5d2","3F2","5d 2D3/2",0.861,0.004,"L8672c99"
99,"Es XXXI",30,69,"Einsteinium","Tm","Xe4f145d","5d","2D3/2","4f14 1S0",0.895,0.004,"L8672c99"
99,"Es XXXII",31,68,"Einsteinium","Er","Xe4f14","4f14","1S0","4f145p5 2P°3/2",1.06,0.05,"L582"
99,"Es XXXIII",32,67,"Einsteinium","Ho","Cd4f145p5","4f145p5","2P°3/2","4f145p4 3P2",1.1,0.05,"L582"
99,"Es XXXIV",33,66,"Einsteinium","Dy","Cd4f145p4","4f145p4","3P2","4f145p3 2P°3/2",1.14,0.06,"L582"
99,"Es XXXV",34,65,"Einsteinium","Tb","Cd4f145p3","4f145p3","2P°3/2","4f145p2 3P0",1.18,0.06,"L582"
99,"Es XXXVI",35,64,"Einsteinium","Gd","Cd4f145p2","4f145p2","3P0","4f145p 2P°1/2",1.31,0.07,"L582"
99,"Es XXXVII",36,63,"Einsteinium","Eu","Cd4f145p","4f145p","2P°1/2","4f14 1S0",1.36,0.07,"L582"
99,"Es XXXVIII",37,62,"Einsteinium","Sm","Cd4f14","4f14","1S0","4f145s 2S1/2",1.48,0.07,"L582"
99,"Es XXXIX",38,61,"Einsteinium","Pm","Kr4d104f145s","4f145s","2S1/2","4f14 1S0",1.53,0.08,"L582"
99,"Es XL",39,60,"Einsteinium","Nd","Kr4d104f14","4f14","1S0","4f13 2F°7/2",1.69,0.08,"L582"
99,"Es XLI",40,59,"Einsteinium","Pr","Kr4d104f13","4f13","2F°7/2","4f12",1.78,0.09,"L582"
99,"Es XLII",41,58,"Einsteinium","Ce","Kr4d104f12","4f12",NA,"4f11 4I°15/2",1.87,0.09,"L582"
99,"Es XLIII",42,57,"Einsteinium","La","Kr4d104f11","4f11","4I°15/2","4f10 5I8",1.95,0.1,"L582"
99,"Es XLIV",43,56,"Einsteinium","Ba","Kr4d104f10","4f10","5I8","4f9 6H°15/2",2.04,0.1,"L582"
99,"Es XLV",44,55,"Einsteinium","Cs","Kr4d104f9","4f9","6H°15/2","4f8 7F6",2.13,0.11,"L582"
99,"Es XLVI",45,54,"Einsteinium","Xe","Kr4d104f8","4f8","7F6","4f7 8S°7/2",2.22,0.11,"L582"
99,"Es XLVII",46,53,"Einsteinium","I","Kr4d104f7","4f7","8S°7/2","4f6 7F0",2.3,0.12,"L582"
99,"Es XLVIII",47,52,"Einsteinium","Te","Kr4d104f6","4f6","7F0","4f5 6H°5/2",2.41,0.12,"L582"
99,"Es XLIX",48,51,"Einsteinium","Sb","Kr4d104f5","4f5","6H°5/2","4f4 5I4",2.49,0.12,"L582"
99,"Es L",49,50,"Einsteinium","Sn","Kr4d104f4","4f4","5I4","4f3 4I°9/2",2.58,0.12,"L582"
99,"Es LI",50,49,"Einsteinium","In","Kr4d104f3","4f3","4I°9/2","4f2 3H4",2.68,0.14,"L582"
99,"Es LII",51,48,"Einsteinium","Cd","Kr4d104f2","4f2","3H4","4f 2F°5/2",2.76,0.14,"L582"
99,"Es LIII",52,47,"Einsteinium","Ag","Kr4d104f","4f","2F°5/2","4d10 1S0",2.85,0.14,"L582"
99,"Es LIV",53,46,"Einsteinium","Pd","Kr4d10","4d10","1S0","4d9 2D5/2",3.294,0.005,"L8672c99"
99,"Es LV",54,45,"Einsteinium","Rh","Kr4d9","4d9","2D5/2","4d8 3F4",3.37,0.005,"L8672c99"
99,"Es LVI",55,44,"Einsteinium","Ru","Kr4d8","4d8","3F4","4d7 4F9/2",3.449,0.005,"L8672c99"
99,"Es LVII",56,43,"Einsteinium","Tc","Kr4d7","4d7","4F9/2","4d6 5D4",3.535,0.005,"L8672c99"
99,"Es LVIII",57,42,"Einsteinium","Mo","Kr4d6","4d6","5D4","4d5 5/2",3.616,0.006,"L8672c99"
99,"Es LIX",58,41,"Einsteinium","Nb","Kr4d5","4d5","5/2","4d4 5D0",3.694,0.006,"L8672c99"
99,"Es LX",59,40,"Einsteinium","Zr","Kr4d4","4d4","5D0","4d3 4F3/2",3.866,0.007,"L8672c99"
99,"Es LXI",60,39,"Einsteinium","Y","Kr4d3","4d3","4F3/2","4d2 3F2",3.947,0.01,"L8672c99"
99,"Es LXII",61,38,"Einsteinium","Sr","Kr4d2","4d2","3F2","4d 2D3/2",4.038,0.012,"L8672c99"
99,"Es LXIII",62,37,"Einsteinium","Rb","Kr4d","4d","2D3/2","4p6 1S0",4.12,0.015,"L8672c99"
99,"Es LXIV",63,36,"Einsteinium","Kr","Ar3d104s24p6","4p6","1S0","4p5 2P°3/2",4.456,0.019,"L8672c99"
99,"Es LXV",64,35,"Einsteinium","Br","Ar3d104s24p5","4p5","2P°3/2","4p4 3P2",4.537,0.024,"L8672c99"
99,"Es LXVI",65,34,"Einsteinium","Se","Ar3d104s24p4","4p4","3P2","4p3°3/2",4.62,0.03,"L8672c99"
99,"Es LXVII",66,33,"Einsteinium","As","Ar3d104s24p3","4p3","°3/2","4p2 3P0",4.7,0.04,"L8672c99"
99,"Es LXVIII",67,32,"Einsteinium","Ge","Ar3d104s24p2","4p2","3P0","4p 2P°1/2",5.26,0.04,"L8672c99"
99,"Es LXIX",68,31,"Einsteinium","Ga","Ar3d104s24p","4p","2P°1/2","4s2 1S0",5.35,0.05,"L8672c99"
99,"Es LXX",69,30,"Einsteinium","Zn","Ar3d104s2","4s2","1S0","4s 2S1/2",5.6,0.05,"L8672c99"
99,"Es LXXI",70,29,"Einsteinium","Cu","Ar3d104s","4s","2S1/2","3d10 1S0",5.69,0.06,"L8672c99"
99,"Es LXXII",71,28,"Einsteinium","Ni","Ar3d10","3d10","1S0","3d9 2D5/2",8.96,0.06,"L8672c99"
99,"Es LXXIII",72,27,"Einsteinium","Co","Ar3d9","3d9","2D5/2","3d8 3F4",9.14,0.07,"L8672c99"
99,"Es LXXIV",73,26,"Einsteinium","Fe","Ar3d8","3d8","3F4","3d7 4F9/2",9.33,0.09,"L8672c99"
99,"Es LXXV",74,25,"Einsteinium","Mn","Ar3d7","3d7","4F9/2","3d6 4",9.53,0.09,"L8672c99"
99,"Es LXXVI",75,24,"Einsteinium","Cr","Ar3d6","3d6","4","3d5 5/2",9.72,0.1,"L8672c99"
99,"Es LXXVII",76,23,"Einsteinium","V","Ar3d5","3d5","5/2","3d4 5D0",9.91,0.11,"L8672c99"
99,"Es LXXVIII",77,22,"Einsteinium","Ti","Ar3d4","3d4","5D0","3d3 4F3/2",10.4,0.12,"L8672c99"
99,"Es LXXIX",78,21,"Einsteinium","Sc","Ar3d3","3d3","4F3/2","3d2 3F2",10.59,0.12,"L8672c99"
99,"Es LXXX",79,20,"Einsteinium","Ca","Ar3d2","3d2","3F2","3d 2D3/2",10.81,0.14,"L8672c99"
99,"Es LXXXI",80,19,"Einsteinium","K","Ar3d","3d","2D3/2","3p6 1S0",11.01,0.15,"L8672c99"
99,"Es LXXXII",81,18,"Einsteinium","Ar","Ne3s23p6","3p6","1S0","3p5 2P°3/2",11.57,0.16,"L8672c99"
99,"Es LXXXIII",82,17,"Einsteinium","Cl","Ne3s23p5","3p5","2P°3/2","3p4 3P2",11.74,0.17,"L8672c99"
99,"Es LXXXIV",83,16,"Einsteinium","S","Ne3s23p4","3p4","3P2","3p3 2P°3/2",11.93,0.19,"L8672c99"
99,"Es LXXXV",84,15,"Einsteinium","P","Ne3s23p3","3p3","2P°3/2","3p2 3P0",12.11,0.2,"L8672c99"
99,"Es LXXXVI",85,14,"Einsteinium","Si","Ne3s23p2","3p2","3P0","3p 2P°1/2",13.81,0.22,"L8672c99"
99,"Es LXXXVII",86,13,"Einsteinium","Al","Ne3s23p","3p","2P°1/2","3s2 1S0",14.03,0.24,"L8672c99"
99,"Es LXXXVIII",87,12,"Einsteinium","Mg","Ne3s2","3s2","1S0","3s 2S1/2",14.46,0.25,"L8672c99"
99,"Es LXXXIX",88,11,"Einsteinium","Na","Ne3s","3s","2S1/2","2p6 1S0",14.7,0.3,"L8672c99"
99,"Es XC",89,10,"Einsteinium","Ne","1s22s22p6","2p6","1S0","2p5 2P°3/2",29.7,0.3,"L8672c99"
99,"Es XCI",90,9,"Einsteinium","F","1s22s22p5","2p5","2P°3/2","2p4 3P2",30.1,0.3,"L8672c99"
99,"Es XCII",91,8,"Einsteinium","O","1s22s22p4","2p4","3P2","2p21/22p3/2 0,3/2°3/2",30.7,0.3,"L8672c99"
99,"Es XCIII",92,7,"Einsteinium","N","1s22s22p3","2p21/22p3/2","0,3/2°3/2","2p2 3P0",31.1,0.4,"L8672c99"
99,"Es XCIV",93,6,"Einsteinium","C","1s22s22p2","2p2","3P0","2p 2P°1/2",37.4,0.4,"L8672c99"
99,"Es XCV",94,5,"Einsteinium","B","1s22s22p","2p","2P°1/2","2s2 1S0",38.1,0.4,"L8672c99"
99,"Es XCVI",95,4,"Einsteinium","Be","1s22s2","2s2","1S0","2s 2S1/2",38.9,0.4,"L8672c99"
99,"Es XCVII",96,3,"Einsteinium","Li","1s22s","2s","2S1/2","1s2 1S0",39.4514,0.001,"L16264c99"
99,"Es XCVIII",97,2,"Einsteinium","He","1s2","1s2","1S0","1s 2S1/2",154.3281,0.0015,"L10054"
99,"Es XCIX",98,1,"Einsteinium","H","1s","1s","2S1/2",NA,156.926,0.005,"L7188"
100,"Fm I",0,100,"Fermium","Fm","Rn5f127s2","5f127s2","3H6","5f127s 4H13/2",0.0065,7e-05,"L16359"
100,"Fm II",1,99,"Fermium","Es","Rn5f127s","5f127s","4H13/2","5f12 3H6",0.0124,4e-04,"L13741c99"
100,"Fm III",2,98,"Fermium","Cf","Rn5f12","5f12","3H6","5f11 4I°15/2",0.0232,4e-04,"L13741c99"
100,"Fm IV",3,97,"Fermium","Bk","Rn5f11","5f11","4I°15/2","5f10 5I8",0.0393,4e-04,"L13741c99"
100,"Fm V",4,96,"Fermium","Cm","Rn5f10","5f10","5I8","5f9 6H°15/2",0.055,0.0019,"L8672c99"
100,"Fm VI",5,95,"Fermium","Am","Rn5f9","5f9","6H°15/2","5f8 7F6",0.074,0.002,"L8672c99"
100,"Fm VII",6,94,"Fermium","Pu","Rn5f8","5f8","7F6","5f7 8S°7/2",0.093,0.002,"L8672c99"
100,"Fm VIII",7,93,"Fermium","Np","Rn5f7","5f7","8S°7/2","5f6 7F0",0.12,0.0021,"L8672c99"
100,"Fm IX",8,92,"Fermium","U","Rn5f6","5f6","7F0","5f5 6H°5/2",0.136,0.0022,"L8672c99"
100,"Fm X",9,91,"Fermium","Pa","Rn5f5","5f5","6H°5/2","5f4 5I4",0.162,0.0022,"L8672c99"
100,"Fm XI",10,90,"Fermium","Th","Rn5f4","5f4","5I4","5f76p2",0.185,0.009,"L582"
100,"Fm XII",11,89,"Fermium","Ac","Hg5f76p2","5f76p2","°","5f66p2",0.209,0.01,"L582"
100,"Fm XIII",12,88,"Fermium","Ra","Hg5f66p2","5f66p2",NA,"5f56p2°",0.237,0.012,"L582"
100,"Fm XIV",13,87,"Fermium","Fr","Hg5f56p2","5f56p2","°","5f56p",0.257,0.012,"L582"
100,"Fm XV",14,86,"Fermium","Rn","Hg5f56p","5f56p",NA,"5f5°",0.276,0.014,"L582"
100,"Fm XVI",15,85,"Fermium","At","Hg5f5","5f5","°","5f4",0.3,0.015,"L582"
100,"Fm XVII",16,84,"Fermium","Po","Hg5f4","5f4",NA,"5f3°",0.326,0.016,"L582"
100,"Fm XVIII",17,83,"Fermium","Bi","Hg5f3","5f3","°","5f2",0.351,0.017,"L582"
100,"Fm XIX",18,82,"Fermium","Pb","Hg5f2","5f2",NA,"5f 2F°5/2",0.377,0.019,"L582"
100,"Fm XX",19,81,"Fermium","Tl","Hg5f","5f","2F°5/2","6s2 1S0",0.402,0.02,"L582"
100,"Fm XXI",20,80,"Fermium","Hg","Xe4f145d106s2","6s2","1S0","6s 2S1/2",0.43,0.004,"L8672c99"
100,"Fm XXII",21,79,"Fermium","Au","Xe4f145d106s","6s","2S1/2","5d10 1S0",0.453,0.004,"L8672c99"
100,"Fm XXIII",22,78,"Fermium","Pt","Xe4f145d10","5d10","1S0","5d9 2D5/2",0.616,0.004,"L8672c99"
100,"Fm XXIV",23,77,"Fermium","Ir","Xe4f145d9","5d9","2D5/2","5d8 3F4",0.647,0.004,"L8672c99"
100,"Fm XXV",24,76,"Fermium","Os","Xe4f145d8","5d8","3F4","5d7 4F9/2",0.68,0.004,"L8672c99"
100,"Fm XXVI",25,75,"Fermium","Re","Xe4f145d7","5d7","4F9/2","5d6 5D4",0.716,0.004,"L8672c99"
100,"Fm XXVII",26,74,"Fermium","W","Xe4f145d6","5d6","5D4","5d5 6S5/2",0.749,0.004,"L8672c99"
100,"Fm XXVIII",27,73,"Fermium","Ta","Xe4f145d5","5d5","6S5/2","5d4 5D0",0.782,0.004,"L8672c99"
100,"Fm XXIX",28,72,"Fermium","Hf","Xe4f145d4","5d4","5D0","5d3 4F3/2",0.837,0.004,"L8672c99"
100,"Fm XXX",29,71,"Fermium","Lu","Xe4f145d3","5d3","4F3/2","5d2 3F2",0.871,0.004,"L8672c99"
100,"Fm XXXI",30,70,"Fermium","Yb","Xe4f145d2","5d2","3F2","5d 2D3/2",0.909,0.004,"L8672c99"
100,"Fm XXXII",31,69,"Fermium","Tm","Xe4f145d","5d","2D3/2","4f14 1S0",0.944,0.004,"L8672c99"
100,"Fm XXXIII",32,68,"Fermium","Er","Xe4f14","4f14","1S0","4f145p5 2P°3/2",1.11,0.05,"L582"
100,"Fm XXXIV",33,67,"Fermium","Ho","Cd4f145p5","4f145p5","2P°3/2","4f145p4 3P2",1.15,0.06,"L582"
100,"Fm XXXV",34,66,"Fermium","Dy","Cd4f145p4","4f145p4","3P2","4f145p3 2P°3/2",1.19,0.06,"L582"
100,"Fm XXXVI",35,65,"Fermium","Tb","Cd4f145p3","4f145p3","2P°3/2","4f145p2 3P0",1.23,0.06,"L582"
100,"Fm XXXVII",36,64,"Fermium","Gd","Cd4f145p2","4f145p2","3P0","4f145p 2P°1/2",1.37,0.07,"L582"
100,"Fm XXXVIII",37,63,"Fermium","Eu","Cd4f145p","4f145p","2P°1/2","4f14 1S0",1.42,0.07,"L582"
100,"Fm XXXIX",38,62,"Fermium","Sm","Cd4f14","4f14","1S0","4f145s 2S1/2",1.55,0.08,"L582"
100,"Fm XL",39,61,"Fermium","Pm","Kr4d104f145s","4f145s","2S1/2","4f14 1S0",1.6,0.08,"L582"