"Z","Species","CS","Occ","Element","Iso_elec","Ground_Shells","Ground_Config","Ground_Level","Ionized_Level","IE","IE_uncertainty","References"
81,"Tl XII",11,70,"Thallium","Yb","Xe4f145d2","5d2","3F2","5d 2D3/2",0.198,0.0025,"L8672c99"
81,"Tl XIII",12,69,"Thallium","Tm","Xe4f145d","5d","2D3/2","4f14 1S0",0.2183,0.002,"L3654"
81,"Tl XIV",13,68,"Thallium","Er","Xe4f14","4f14","1S0","4f145p5 2P°3/2",0.3069,0.0014,"L3654"
81,"Tl XV",14,67,"Thallium","Ho","Cd4f145p5","4f145p5","2P°3/2","4f145p4 3P2",0.34,0.017,"L582"
81,"Tl XVI",15,66,"Thallium","Dy","Cd4f145p4","4f145p4","3P2","4f145p3 2P°3/2",0.366,0.019,"L582"
81,"Tl XVII",16,65,"Thallium","Tb","Cd4f145p3","4f145p3","2P°3/2","4f145p2 3P0",0.392,0.02,"L582"
81,"Tl XVIII",17,64,"Thallium","Gd","Cd4f145p2","4f145p2","3P0","4f145p 2P°1/2",0.439,0.022,"L582"
81,"Tl XIX",18,63,"Thallium","Eu","Cd4f145p","4f145p","2P°1/2","4f14 1S0",0.467,0.024,"L582"
81,"Tl XX",19,62,"Thallium","Sm","Cd4f14","4f14","1S0","4f135s2 2F°7/2",0.52,0.03,"L582"
81,"Tl XXI",20,61,"Thallium","Pm","Cd4f13","4f135s2","2F°7/2","4f135s°",0.57,0.03,"L582"
81,"Tl XXII",21,60,"Thallium","Nd","Kr4d104f135s","4f135s","°","4f13 2F°7/2",0.6,0.03,"L582"
81,"Tl XXIII",22,59,"Thallium","Pr","Kr4d104f13","4f13","2F°7/2","4f12",0.64,0.03,"L582"
81,"Tl XXIV",23,58,"Thallium","Ce","Kr4d104f12","4f12",NA,"4f11 4I°15/2",0.7,0.03,"L582"
81,"Tl XXV",24,57,"Thallium","La","Kr4d104f11","4f11","4I°15/2","4f10 5I8",0.76,0.04,"L582"
81,"Tl XXVI",25,56,"Thallium","Ba","Kr4d104f10","4f10","5I8","4f9 6H°15/2",0.82,0.04,"L582"
81,"Tl XXVII",26,55,"Thallium","Cs","Kr4d104f9","4f9","6H°15/2","4f8 7F6",0.88,0.04,"L582"
81,"Tl XXVIII",27,54,"Thallium","Xe","Kr4d104f8","4f8","7F6","4f7 8S°7/2",0.93,0.05,"L582"
81,"Tl XXIX",28,53,"Thallium","I","Kr4d104f7","4f7","8S°7/2","4f6 7F0",0.99,0.05,"L582"
81,"Tl XXX",29,52,"Thallium","Te","Kr4d104f6","4f6","7F0","4f5 6H°5/2",1.06,0.05,"L582"
81,"Tl XXXI",30,51,"Thallium","Sb","Kr4d104f5","4f5","6H°5/2","4f4 5I4",1.11,0.06,"L582"
81,"Tl XXXII",31,50,"Thallium","Sn","Kr4d104f4","4f4","5I4","4f3 4I°9/2",1.17,0.06,"L582"
81,"Tl XXXIII",32,49,"Thallium","In","Kr4d104f3","4f3","4I°9/2","4f2 3H4",1.23,0.06,"L582"
81,"Tl XXXIV",33,48,"Thallium","Cd","Kr4d104f2","4f2","3H4","4f 2F°5/2",1.29,0.06,"L582"
81,"Tl XXXV",34,47,"Thallium","Ag","Kr4d104f","4f","2F°5/2","4d10 1S0",1.35,0.06,"L582"
81,"Tl XXXVI",35,46,"Thallium","Pd","Kr4d10","4d10","1S0","4d9 2D5/2",1.625,0.005,"L8672c99"
81,"Tl XXXVII",36,45,"Thallium","Rh","Kr4d9","4d9","2D5/2","4d8 3F4",1.681,0.005,"L8672c99"
81,"Tl XXXVIII",37,44,"Thallium","Ru","Kr4d8","4d8","3F4","4d7 4F9/2",1.74,0.004,"L8672c99"
81,"Tl XXXIX",38,43,"Thallium","Tc","Kr4d7","4d7","4F9/2","4d6 5D4",1.802,0.004,"L8672c99"
81,"Tl XL",39,42,"Thallium","Mo","Kr4d6","4d6","5D4","4d5 5/2",1.862,0.004,"L8672c99"
81,"Tl XLI",40,41,"Thallium","Nb","Kr4d5","4d5","5/2","4d4 5D0",1.92,0.004,"L8672c99"
81,"Tl XLII",41,40,"Thallium","Zr","Kr4d4","4d4","5D0","4d3 4F3/2",2.014,0.004,"L8672c99"
81,"Tl XLIII",42,39,"Thallium","Y","Kr4d3","4d3","4F3/2","4d2 3F2",2.075,0.004,"L8672c99"
81,"Tl XLIV",43,38,"Thallium","Sr","Kr4d2","4d2","3F2","4d 2D3/2",2.14,0.004,"L8672c99"
81,"Tl XLV",44,37,"Thallium","Rb","Kr4d","4d","2D3/2","4p6 1S0",2.202,0.004,"L8672c99"
81,"Tl XLVI",45,36,"Thallium","Kr","Ar3d104s24p6","4p6","1S0","4p5 2P°3/2",2.447,0.004,"L8672c99"
81,"Tl XLVII",46,35,"Thallium","Br","Ar3d104s24p5","4p5","2P°3/2","4p4 3P2",2.508,0.004,"L8672c99"
81,"Tl XLVIII",47,34,"Thallium","Se","Ar3d104s24p4","4p4","3P2","4p3°3/2",2.574,0.004,"L8672c99"
81,"Tl XLIX",48,33,"Thallium","As","Ar3d104s24p3","4p3","°3/2","4p2 3P0",2.635,0.004,"L8672c99"
81,"Tl L",49,32,"Thallium","Ge","Ar3d104s24p2","4p2","3P0","4p 2P°1/2",2.854,0.004,"L8672c99"
81,"Tl LI",50,31,"Thallium","Ga","Ar3d104s24p","4p","2P°1/2","4s2 1S0",2.925,0.004,"L8672c99"
81,"Tl LII",51,30,"Thallium","Zn","Ar3d104s2","4s2","1S0","4s 2S1/2",3.094,0.004,"L8672c99"
81,"Tl LIII",52,29,"Thallium","Cu","Ar3d104s","4s","2S1/2","3d10 1S0",3.1647,0.0019,"L10278"
81,"Tl LIV",53,28,"Thallium","Ni","Ar3d10","3d10","1S0","3d9 2D5/2",5.234,0.005,"L8672c99"
81,"Tl LV",54,27,"Thallium","Co","Ar3d9","3d9","2D5/2","3d8 3F4",5.371,0.005,"L8672c99"
81,"Tl LVI",55,26,"Thallium","Fe","Ar3d8","3d8","3F4","3d7 4F9/2",5.518,0.005,"L8672c99"
81,"Tl LVII",56,25,"Thallium","Mn","Ar3d7","3d7","4F9/2","3d6 4",5.674,0.005,"L8672c99"
81,"Tl LVIII",57,24,"Thallium","Cr","Ar3d6","3d6","4","3d5 5/2",5.824,0.006,"L8672c99"
81,"Tl LIX",58,23,"Thallium","V","Ar3d5","3d5","5/2","3d4 5D0",5.969,0.006,"L8672c99"
81,"Tl LX",59,22,"Thallium","Ti","Ar3d4","3d4","5D0","3d3 4F3/2",6.241,0.007,"L8672c99"
81,"Tl LXI",60,21,"Thallium","Sc","Ar3d3","3d3","4F3/2","3d2 3F2",6.392,0.01,"L8672c99"
81,"Tl LXII",61,20,"Thallium","Ca","Ar3d2","3d2","3F2","3d 2D3/2",6.56,0.012,"L8672c99"
81,"Tl LXIII",62,19,"Thallium","K","Ar3d","3d","2D3/2","3p6 1S0",6.714,0.015,"L8672c99"
81,"Tl LXIV",63,18,"Thallium","Ar","Ne3s23p6","3p6","1S0","3p5 2P°3/2",7.146,0.019,"L8672c99"
81,"Tl LXV",64,17,"Thallium","Cl","Ne3s23p5","3p5","2P°3/2","3p4 3P2",7.281,0.024,"L8672c99"
81,"Tl LXVI",65,16,"Thallium","S","Ne3s23p4","3p4","3P2","3p3 2P°3/2",7.43,0.03,"L8672c99"
81,"Tl LXVII",66,15,"Thallium","P","Ne3s23p3","3p3","2P°3/2","3p2 3P0",7.57,0.04,"L8672c99"
81,"Tl LXVIII",67,14,"Thallium","Si","Ne3s23p2","3p2","3P0","3p 2P°1/2",8.26,0.04,"L8672c99"
81,"Tl LXIX",68,13,"Thallium","Al","Ne3s23p","3p","2P°1/2","3s2 1S0",8.42,0.05,"L8672c99"
81,"Tl LXX",69,12,"Thallium","Mg","Ne3s2","3s2","1S0","3s 2S1/2",8.73,0.05,"L8672c99"
81,"Tl LXXI",70,11,"Thallium","Na","Ne3s","3s","2S1/2","2p6 1S0",8.88,0.06,"L8672c99"
81,"Tl LXXII",71,10,"Thallium","Ne","1s22s22p6","2p6","1S0","2p5 2P°3/2",19.07,0.06,"L8672c99"
81,"Tl LXXIII",72,9,"Thallium","F","1s22s22p5","2p5","2P°3/2","2p4 3P2",19.44,0.07,"L8672c99"
81,"Tl LXXIV",73,8,"Thallium","O","1s22s22p4","2p4","3P2","2p21/22p3/2 0,3/2°3/2",19.84,0.09,"L8672c99"
81,"Tl LXXV",74,7,"Thallium","N","1s22s22p3","2p21/22p3/2","0,3/2°3/2","2p2 3P0",20.21,0.09,"L8672c99"
81,"Tl LXXVI",75,6,"Thallium","C","1s22s22p2","2p2","3P0","2p 2P°1/2",22.78,0.1,"L8672c99"
81,"Tl LXXVII",76,5,"Thallium","B","1s22s22p","2p","2P°1/2","2s2 1S0",23.25,0.11,"L8672c99"
81,"Tl LXXVIII",77,4,"Thallium","Be","1s22s2","2s2","1S0","2s 2S1/2",23.85,0.12,"L8672c99"
81,"Tl LXXIX",78,3,"Thallium","Li","1s22s","2s","2S1/2","1s2 1S0",24.2341,4e-04,"L16264c99"
81,"Tl LXXX",79,2,"Thallium","He","1s2","1s2","1S0","1s 2S1/2",96.78321,2e-04,"L12128"
81,"Tl LXXXI",80,1,"Thallium","H","1s","1s","2S1/2",NA,98.5916,4e-04,"L7188"
82,"Pb I",0,82,"Lead","Pb","Hg6p2","6s26p2","1/2,1/20","6p 2P°1/2",0.0074166799,6e-10,"L11569"
82,"Pb II",1,81,"Lead","Tl","Hg6p","6s26p","2P°1/2","6s2 1S0",0.015032499,7e-09,"L15205"
82,"Pb III",2,80,"Lead","Hg","Xe4f145d106s2","5d106s2","1S0","5d106s 2S1/2",0.0319373,6e-07,"L3466"
82,"Pb IV",3,79,"Lead","Au","Xe4f145d106s","5d106s","2S1/2","5d10 1S0",0.04233256,1e-07,"L15205"
82,"Pb V",4,78,"Lead","Pt","Xe4f145d10","5d10","1S0","5d9 2D5/2",0.0688,5e-04,"L3577"
82,"Pb VI",5,77,"Lead","Ir","Xe4f145d9","5d9","2D5/2","5d8 3F4",0.0829,0.002,"L8672c99"
82,"Pb VII",6,76,"Lead","Os","Xe4f145d8","5d8","3F4","5d7 4F9/2",0.1001,0.002,"L8672c99"
82,"Pb VIII",7,75,"Lead","Re","Xe4f145d7","5d7","4F9/2","5d6 5D4",0.12,0.0021,"L8672c99"
82,"Pb IX",8,74,"Lead","W","Xe4f145d6","5d6","5D4","5d5 6S5/2",0.138,0.0022,"L8672c99"
82,"Pb X",9,73,"Lead","Ta","Xe4f145d5","5d5","6S5/2","5d4 5D0",0.158,0.0022,"L8672c99"
82,"Pb XI",10,72,"Lead","Hf","Xe4f145d4","5d4","5D0","5d3 4F3/2",0.182,0.0024,"L8672c99"
82,"Pb XII",11,71,"Lead","Lu","Xe4f145d3","5d3","4F3/2","5d2 3F2",0.203,0.0025,"L8672c99"
82,"Pb XIII",12,70,"Lead","Yb","Xe4f145d2","5d2","3F2","5d 2D3/2",0.224,0.003,"L8672c99"
82,"Pb XIV",13,69,"Lead","Tm","Xe4f145d","5d","2D3/2","4f14 1S0",0.2451,0.0022,"L3654"
82,"Pb XV",14,68,"Lead","Er","Xe4f14","4f14","1S0","4f145p5 2P°3/2",0.3381,0.0015,"L3654"
82,"Pb XVI",15,67,"Lead","Ho","Cd4f145p5","4f145p5","2P°3/2","4f145p4 3P2",0.374,0.019,"L582"
82,"Pb XVII",16,66,"Lead","Dy","Cd4f145p4","4f145p4","3P2","4f145p3 2P°3/2",0.401,0.02,"L582"
82,"Pb XVIII",17,65,"Lead","Tb","Cd4f145p3","4f145p3","2P°3/2","4f145p2 3P0",0.427,0.021,"L582"
82,"Pb XIX",18,64,"Lead","Gd","Cd4f145p2","4f145p2","3P0","4f145p 2P°1/2",0.478,0.024,"L582"
82,"Pb XX",19,63,"Lead","Eu","Cd4f145p","4f145p","2P°1/2","4f14 1S0",0.507,0.025,"L582"
82,"Pb XXI",20,62,"Lead","Sm","Cd4f14","4f14","1S0","4f135s2 2F°7/2",0.57,0.03,"L582"
82,"Pb XXII",21,61,"Lead","Pm","Cd4f13","4f135s2","2F°7/2","4f135s°",0.61,0.03,"L582"
82,"Pb XXIII",22,60,"Lead","Nd","Kr4d104f135s","4f135s","°","4f13 2F°7/2",0.65,0.03,"L582"
82,"Pb XXIV",23,59,"Lead","Pr","Kr4d104f13","4f13","2F°7/2","4f12",0.69,0.03,"L582"
82,"Pb XXV",24,58,"Lead","Ce","Kr4d104f12","4f12",NA,"4f11 4I°15/2",0.75,0.04,"L582"
82,"Pb XXVI",25,57,"Lead","La","Kr4d104f11","4f11","4I°15/2","4f10 5I8",0.81,0.04,"L582"
82,"Pb XXVII",26,56,"Lead","Ba","Kr4d104f10","4f10","5I8","4f9 6H°15/2",0.87,0.04,"L582"
82,"Pb XXVIII",27,55,"Lead","Cs","Kr4d104f9","4f9","6H°15/2","4f8 7F6",0.93,0.05,"L582"
82,"Pb XXIX",28,54,"Lead","Xe","Kr4d104f8","4f8","7F6","4f7 8S°7/2",0.99,0.05,"L582"
82,"Pb XXX",29,53,"Lead","I","Kr4d104f7","4f7","8S°7/2","4f6 7F0",1.05,0.05,"L582"
82,"Pb XXXI",30,52,"Lead","Te","Kr4d104f6","4f6","7F0","4f5 6H°5/2",1.12,0.06,"L582"
82,"Pb XXXII",31,51,"Lead","Sb","Kr4d104f5","4f5","6H°5/2","4f4 5I4",1.18,0.06,"L582"
82,"Pb XXXIII",32,50,"Lead","Sn","Kr4d104f4","4f4","5I4","4f3 4I°9/2",1.24,0.06,"L582"
82,"Pb XXXIV",33,49,"Lead","In","Kr4d104f3","4f3","4I°9/2","4f2 3H4",1.3,0.06,"L582"
82,"Pb XXXV",34,48,"Lead","Cd","Kr4d104f2","4f2","3H4","4f 2F°5/2",1.36,0.06,"L582"
82,"Pb XXXVI",35,47,"Lead","Ag","Kr4d104f","4f","2F°5/2","4d10 1S0",1.43,0.07,"L582"
82,"Pb XXXVII",36,46,"Lead","Pd","Kr4d10","4d10","1S0","4d9 2D5/2",1.704,0.005,"L8672c99"
82,"Pb XXXVIII",37,45,"Lead","Rh","Kr4d9","4d9","2D5/2","4d8 3F4",1.76,0.004,"L8672c99"
82,"Pb XXXIX",38,44,"Lead","Ru","Kr4d8","4d8","3F4","4d7 4F9/2",1.819,0.004,"L8672c99"
82,"Pb XL",39,43,"Lead","Tc","Kr4d7","4d7","4F9/2","4d6 5D4",1.884,0.004,"L8672c99"
82,"Pb XLI",40,42,"Lead","Mo","Kr4d6","4d6","5D4","4d5 5/2",1.945,0.004,"L8672c99"
82,"Pb XLII",41,41,"Lead","Nb","Kr4d5","4d5","5/2","4d4 5D0",2.004,0.004,"L8672c99"
82,"Pb XLIII",42,40,"Lead","Zr","Kr4d4","4d4","5D0","4d3 4F3/2",2.101,0.004,"L8672c99"
82,"Pb XLIV",43,39,"Lead","Y","Kr4d3","4d3","4F3/2","4d2 3F2",2.163,0.004,"L8672c99"
82,"Pb XLV",44,38,"Lead","Sr","Kr4d2","4d2","3F2","4d 2D3/2",2.23,0.004,"L8672c99"
82,"Pb XLVI",45,37,"Lead","Rb","Kr4d","4d","2D3/2","4p6 1S0",2.292,0.004,"L8672c99"
82,"Pb XLVII",46,36,"Lead","Kr","Ar3d104s24p6","4p6","1S0","4p5 2P°3/2",2.543,0.004,"L8672c99"
82,"Pb XLVIII",47,35,"Lead","Br","Ar3d104s24p5","4p5","2P°3/2","4p4 3P2",2.605,0.004,"L8672c99"
82,"Pb XLIX",48,34,"Lead","Se","Ar3d104s24p4","4p4","3P2","4p3°3/2",2.671,0.004,"L8672c99"
82,"Pb L",49,33,"Lead","As","Ar3d104s24p3","4p3","°3/2","4p2 3P0",2.735,0.004,"L8672c99"
82,"Pb LI",50,32,"Lead","Ge","Ar3d104s24p2","4p2","3P0","4p 2P°1/2",2.965,0.004,"L8672c99"
82,"Pb LII",51,31,"Lead","Ga","Ar3d104s24p","4p","2P°1/2","4s2 1S0",3.036,0.004,"L8672c99"
82,"Pb LIII",52,30,"Lead","Zn","Ar3d104s2","4s2","1S0","4s 2S1/2",3.211,0.004,"L8672c99"
82,"Pb LIV",53,29,"Lead","Cu","Ar3d104s","4s","2S1/2","3d10 1S0",3.2821,0.002,"L10278"
82,"Pb LV",54,28,"Lead","Ni","Ar3d10","3d10","1S0","3d9 2D5/2",5.414,0.005,"L8672c99"
82,"Pb LVI",55,27,"Lead","Co","Ar3d9","3d9","2D5/2","3d8 3F4",5.555,0.005,"L8672c99"
82,"Pb LVII",56,26,"Lead","Fe","Ar3d8","3d8","3F4","3d7 4F9/2",5.703,0.005,"L8672c99"
82,"Pb LVIII",57,25,"Lead","Mn","Ar3d7","3d7","4F9/2","3d6 4",5.862,0.006,"L8672c99"
82,"Pb LIX",58,24,"Lead","Cr","Ar3d6","3d6","4","3d5 5/2",6.015,0.006,"L8672c99"
82,"Pb LX",59,23,"Lead","V","Ar3d5","3d5","5/2","3d4 5D0",6.162,0.007,"L8672c99"
82,"Pb LXI",60,22,"Lead","Ti","Ar3d4","3d4","5D0","3d3 4F3/2",6.442,0.01,"L8672c99"
82,"Pb LXII",61,21,"Lead","Sc","Ar3d3","3d3","4F3/2","3d2 3F2",6.597,0.012,"L8672c99"
82,"Pb LXIII",62,20,"Lead","Ca","Ar3d2","3d2","3F2","3d 2D3/2",6.767,0.015,"L8672c99"
82,"Pb LXIV",63,19,"Lead","K","Ar3d","3d","2D3/2","3p6 1S0",6.924,0.019,"L8672c99"
82,"Pb LXV",64,18,"Lead","Ar","Ne3s23p6","3p6","1S0","3p5 2P°3/2",7.362,0.024,"L8672c99"
82,"Pb LXVI",65,17,"Lead","Cl","Ne3s23p5","3p5","2P°3/2","3p4 3P2",7.5,0.03,"L8672c99"
82,"Pb LXVII",66,16,"Lead","S","Ne3s23p4","3p4","3P2","3p3 2P°3/2",7.65,0.04,"L8672c99"
82,"Pb LXVIII",67,15,"Lead","P","Ne3s23p3","3p3","2P°3/2","3p2 3P0",7.79,0.04,"L8672c99"
82,"Pb LXIX",68,14,"Lead","Si","Ne3s23p2","3p2","3P0","3p 2P°1/2",8.52,0.05,"L8672c99"
82,"Pb LXX",69,13,"Lead","Al","Ne3s23p","3p","2P°1/2","3s2 1S0",8.68,0.05,"L8672c99"
82,"Pb LXXI",70,12,"Lead","Mg","Ne3s2","3s2","1S0","3s 2S1/2",9,0.06,"L8672c99"
82,"Pb LXXII",71,11,"Lead","Na","Ne3s","3s","2S1/2","2p6 1S0",9.15,0.06,"L8672c99"
82,"Pb LXXIII",72,10,"Lead","Ne","1s22s22p6","2p6","1S0","2p5 2P°3/2",19.59,0.07,"L8672c99"
82,"Pb LXXIV",73,9,"Lead","F","1s22s22p5","2p5","2P°3/2","2p4 3P2",19.97,0.09,"L8672c99"
82,"Pb LXXV",74,8,"Lead","O","1s22s22p4","2p4","3P2","2p21/22p3/2 0,3/2°3/2",20.38,0.09,"L8672c99"
82,"Pb LXXVI",75,7,"Lead","N","1s22s22p3","2p21/22p3/2","0,3/2°3/2","2p2 3P0",20.75,0.1,"L8672c99"
82,"Pb LXXVII",76,6,"Lead","C","1s22s22p2","2p2","3P0","2p 2P°1/2",23.46,0.11,"L8672c99"
82,"Pb LXXVIII",77,5,"Lead","B","1s22s22p","2p","2P°1/2","2s2 1S0",23.94,0.12,"L8672c99"
82,"Pb LXXIX",78,4,"Lead","Be","1s22s2","2s2","1S0","2s 2S1/2",24.55,0.12,"L8672c99"
82,"Pb LXXX",79,3,"Lead","Li","1s22s","2s","2S1/2","1s2 1S0",24.9382,4e-04,"L16264c99"
82,"Pb LXXXI",80,2,"Lead","He","1s2","1s2","1S0","1s 2S1/2",99.49185,0.00021,"L12128"
82,"Pb LXXXII",81,1,"Lead","H","1s","1s","2S1/2",NA,101.3364,4e-04,"L7188"
83,"Bi I",0,83,"Bismuth","Bi","Hg6p3","6p3","4S°3/2","6p2 3P0",0.007285516,6e-09,"L10664,L6247"
83,"Bi II",1,82,"Bismuth","Pb","Hg6p2","6p2","3P0","6p 2P°1/2",0.016703,4e-06,"L6771"
83,"Bi III",2,81,"Bismuth","Tl","Hg6p","6s26p","2P°1/2","6s2 1S0",0.02557075,1.7e-07,"L21488"
83,"Bi IV",3,80,"Bismuth","Hg","Xe4f145d106s2","5d106s2","1S0","6s 2S1/2",0.04537,6e-05,"L14078"
83,"Bi V",4,79,"Bismuth","Au","Xe4f145d106s","5d106s","2S1/2","5d10 1S0",0.054856,2.5e-05,"L9361"
83,"Bi VI",5,78,"Bismuth","Pt","Xe4f145d10","5d10","1S0","5d9 2D5/2",0.0884,7e-04,"L3577"
83,"Bi VII",6,77,"Bismuth","Ir","Xe4f145d9","5d9","2D5/2","5d8 3F4",0.103,0.002,"L8672c99"
83,"Bi VIII",7,76,"Bismuth","Os","Xe4f145d8","5d8","3F4","5d7 4F9/2",0.122,0.0021,"L8672c99"
83,"Bi IX",8,75,"Bismuth","Re","Xe4f145d7","5d7","4F9/2","5d6 5D4",0.143,0.0022,"L8672c99"
83,"Bi X",9,74,"Bismuth","W","Xe4f145d6","5d6","5D4","5d5 6S5/2",0.1611,0.0022,"L8672c99"
83,"Bi XI",10,73,"Bismuth","Ta","Xe4f145d5","5d5","6S5/2","5d4 5D0",0.183,0.0024,"L8672c99"
83,"Bi XII",11,72,"Bismuth","Hf","Xe4f145d4","5d4","5D0","5d3 4F3/2",0.208,0.0025,"L8672c99"
83,"Bi XIII",12,71,"Bismuth","Lu","Xe4f145d3","5d3","4F3/2","5d2 3F2",0.229,0.003,"L8672c99"
83,"Bi XIV",13,70,"Bismuth","Yb","Xe4f145d2","5d2","3F2","5d 2D3/2",0.252,0.003,"L8672c99"
83,"Bi XV",14,69,"Bismuth","Tm","Xe4f145d","5d","2D3/2","4f14 1S0",0.2726,0.0025,"L3654"
83,"Bi XVI",15,68,"Bismuth","Er","Xe4f14","4f14","1S0","4f145p5 2P°3/2",0.3702,0.0016,"L3654"
83,"Bi XVII",16,67,"Bismuth","Ho","Cd4f145p5","4f145p5","2P°3/2","4f145p4 3P2",0.409,0.02,"L582"
83,"Bi XVIII",17,66,"Bismuth","Dy","Cd4f145p4","4f145p4","3P2","4f145p3 2P°3/2",0.436,0.022,"L582"
83,"Bi XIX",18,65,"Bismuth","Tb","Cd4f145p3","4f145p3","2P°3/2","4f145p2 3P0",0.464,0.023,"L582"
83,"Bi XX",19,64,"Bismuth","Gd","Cd4f145p2","4f145p2","3P0","4f145p 2P°1/2",0.52,0.03,"L582"
83,"Bi XXI",20,63,"Bismuth","Eu","Cd4f145p","4f145p","2P°1/2","4f14 1S0",0.55,0.03,"L582"
83,"Bi XXII",21,62,"Bismuth","Sm","Cd4f14","4f14","1S0","4f135s2 2F°7/2",0.62,0.03,"L582"
83,"Bi XXIII",22,61,"Bismuth","Pm","Cd4f13","4f135s2","2F°7/2","4f135s°",0.66,0.03,"L582"
83,"Bi XXIV",23,60,"Bismuth","Nd","Kr4d104f135s","4f135s","°","4f13 2F°7/2",0.69,0.03,"L582"
83,"Bi XXV",24,59,"Bismuth","Pr","Kr4d104f13","4f13","2F°7/2","4f12",0.75,0.04,"L582"
83,"Bi XXVI",25,58,"Bismuth","Ce","Kr4d104f12","4f12",NA,"4f11 4I°15/2",0.81,0.04,"L582"
83,"Bi XXVII",26,57,"Bismuth","La","Kr4d104f11","4f11","4I°15/2","4f10 5I8",0.87,0.05,"L582"
83,"Bi XXVIII",27,56,"Bismuth","Ba","Kr4d104f10","4f10","5I8","4f9 6H°15/2",0.93,0.05,"L582"
83,"Bi XXIX",28,55,"Bismuth","Cs","Kr4d104f9","4f9","6H°15/2","4f8 7F6",0.99,0.05,"L582"
83,"Bi XXX",29,54,"Bismuth","Xe","Kr4d104f8","4f8","7F6","4f7 8S°7/2",1.06,0.05,"L582"
83,"Bi XXXI",30,53,"Bismuth","I","Kr4d104f7","4f7","8S°7/2","4f6 7F0",1.12,0.06,"L582"
83,"Bi XXXII",31,52,"Bismuth","Te","Kr4d104f6","4f6","7F0","4f5 6H°5/2",1.18,0.06,"L582"
83,"Bi XXXIII",32,51,"Bismuth","Sb","Kr4d104f5","4f5","6H°5/2","4f4 5I4",1.25,0.06,"L582"
83,"Bi XXXIV",33,50,"Bismuth","Sn","Kr4d104f4","4f4","5I4","4f3 4I°9/2",1.31,0.07,"L582"
83,"Bi XXXV",34,49,"Bismuth","In","Kr4d104f3","4f3","4I°9/2","4f2 3H4",1.38,0.07,"L582"
83,"Bi XXXVI",35,48,"Bismuth","Cd","Kr4d104f2","4f2","3H4","4f 2F°5/2",1.44,0.07,"L582"
83,"Bi XXXVII",36,47,"Bismuth","Ag","Kr4d104f","4f","2F°5/2","4d10 1S0",1.5,0.07,"L582"
83,"Bi XXXVIII",37,46,"Bismuth","Pd","Kr4d10","4d10","1S0","4d9 2D5/2",1.784,0.004,"L8672c99"
83,"Bi XXXIX",38,45,"Bismuth","Rh","Kr4d9","4d9","2D5/2","4d8 3F4",1.84,0.004,"L8672c99"
83,"Bi XL",39,44,"Bismuth","Ru","Kr4d8","4d8","3F4","4d7 4F9/2",1.902,0.004,"L8672c99"
83,"Bi XLI",40,43,"Bismuth","Tc","Kr4d7","4d7","4F9/2","4d6 5D4",1.967,0.004,"L8672c99"
83,"Bi XLII",41,42,"Bismuth","Mo","Kr4d6","4d6","5D4","4d5 5/2",2.029,0.004,"L8672c99"
83,"Bi XLIII",42,41,"Bismuth","Nb","Kr4d5","4d5","5/2","4d4 5D0",2.09,0.004,"L8672c99"
83,"Bi XLIV",43,40,"Bismuth","Zr","Kr4d4","4d4","5D0","4d3 4F3/2",2.19,0.004,"L8672c99"
83,"Bi XLV",44,39,"Bismuth","Y","Kr4d3","4d3","4F3/2","4d2 3F2",2.253,0.004,"L8672c99"
83,"Bi XLVI",45,38,"Bismuth","Sr","Kr4d2","4d2","3F2","4d 2D3/2",2.321,0.004,"L8672c99"
83,"Bi XLVII",46,37,"Bismuth","Rb","Kr4d","4d","2D3/2","4p6 1S0",2.385,0.004,"L8672c99"
83,"Bi XLVIII",47,36,"Bismuth","Kr","Ar3d104s24p6","4p6","1S0","4p5 2P°3/2",2.641,0.004,"L8672c99"
83,"Bi XLIX",48,35,"Bismuth","Br","Ar3d104s24p5","4p5","2P°3/2","4p4 3P2",2.703,0.004,"L8672c99"
83,"Bi L",49,34,"Bismuth","Se","Ar3d104s24p4","4p4","3P2","4p3°3/2",2.771,0.004,"L8672c99"
83,"Bi LI",50,33,"Bismuth","As","Ar3d104s24p3","4p3","°3/2","4p2 3P0",2.835,0.004,"L8672c99"
83,"Bi LII",51,32,"Bismuth","Ge","Ar3d104s24p2","4p2","3P0","4p 2P°1/2",3.078,0.004,"L8672c99"
83,"Bi LIII",52,31,"Bismuth","Ga","Ar3d104s24p","4p","2P°1/2","4s2 1S0",3.151,0.004,"L8672c99"
83,"Bi LIV",53,30,"Bismuth","Zn","Ar3d104s2","4s2","1S0","4s 2S1/2",3.329,0.005,"L8672c99"
83,"Bi LV",54,29,"Bismuth","Cu","Ar3d104s","4s","2S1/2","3d10 1S0",3.4018,0.0024,"L10278"
83,"Bi LVI",55,28,"Bismuth","Ni","Ar3d10","3d10","1S0","3d9 2D5/2",5.599,0.005,"L8672c99"
83,"Bi LVII",56,27,"Bismuth","Co","Ar3d9","3d9","2D5/2","3d8 3F4",5.74,0.005,"L8672c99"
83,"Bi LVIII",57,26,"Bismuth","Fe","Ar3d8","3d8","3F4","3d7 4F9/2",5.892,0.006,"L8672c99"
83,"Bi LIX",58,25,"Bismuth","Mn","Ar3d7","3d7","4F9/2","3d6 4",6.054,0.006,"L8672c99"
83,"Bi LX",59,24,"Bismuth","Cr","Ar3d6","3d6","4","3d5 5/2",6.208,0.007,"L8672c99"
83,"Bi LXI",60,23,"Bismuth","V","Ar3d5","3d5","5/2","3d4 5D0",6.358,0.01,"L8672c99"
83,"Bi LXII",61,22,"Bismuth","Ti","Ar3d4","3d4","5D0","3d3 4F3/2",6.648,0.012,"L8672c99"
83,"Bi LXIII",62,21,"Bismuth","Sc","Ar3d3","3d3","4F3/2","3d2 3F2",6.804,0.015,"L8672c99"
83,"Bi LXIV",63,20,"Bismuth","Ca","Ar3d2","3d2","3F2","3d 2D3/2",6.977,0.019,"L8672c99"
83,"Bi LXV",64,19,"Bismuth","K","Ar3d","3d","2D3/2","3p6 1S0",7.137,0.024,"L8672c99"
83,"Bi LXVI",65,18,"Bismuth","Ar","Ne3s23p6","3p6","1S0","3p5 2P°3/2",7.58,0.03,"L8672c99"
83,"Bi LXVII",66,17,"Bismuth","Cl","Ne3s23p5","3p5","2P°3/2","3p4 3P2",7.72,0.04,"L8672c99"
83,"Bi LXVIII",67,16,"Bismuth","S","Ne3s23p4","3p4","3P2","3p3 2P°3/2",7.87,0.04,"L8672c99"
83,"Bi LXIX",68,15,"Bismuth","P","Ne3s23p3","3p3","2P°3/2","3p2 3P0",8.01,0.05,"L8672c99"