"Z","Species","CS","Occ","Element","Iso_elec","Ground_Shells","Ground_Config","Ground_Level","Ionized_Level","IE","IE_uncertainty","References"
95,"Am XCIV",93,2,"Americium","He","1s2","1s2","1S0","1s 2S1/2",139.7695,7e-04,"L12128"
95,"Am XCV",94,1,"Americium","H","1s","1s","2S1/2",NA,142.161,0.004,"L7188"
96,"Cm I",0,96,"Curium","Cm","Rn5f76d7s2","5f76d7s2","9D°2","5f77s2 8S°7/2",0.00599141,2.5e-07,"L15992"
96,"Cm II",1,95,"Curium","Am","Rn5f77s2","5f77s2","8S°7/2","5f8 7F6",0.0124,4e-04,"L13741c99"
96,"Cm III",2,94,"Curium","Pu","Rn5f8","5f8","7F6","5f7 8S°7/2",0.0201,4e-04,"L13741c99"
96,"Cm IV",3,93,"Curium","Np","Rn5f7","5f7","8S°7/2","5f6 7F0",0.0377,4e-04,"L13741c99"
96,"Cm V",4,92,"Curium","U","Rn5f6","5f6","7F0","5f5 6H°5/2",0.051,0.0019,"L8672c99"
96,"Cm VI",5,91,"Curium","Pa","Rn5f5","5f5","6H°5/2","5f4 5I4",0.0691,0.002,"L8672c99"
96,"Cm VII",6,90,"Curium","Th","Rn5f4","5f4","5I4","5f56p4",0.097,0.005,"L582"
96,"Cm VIII",7,89,"Curium","Ac","Hg5f56p4","5f56p4","°","5f56p3",0.112,0.006,"L582"
96,"Cm IX",8,88,"Curium","Ra","Hg5f56p3","5f56p3",NA,"5f56p2°",0.128,0.006,"L582"
96,"Cm X",9,87,"Curium","Fr","Hg5f56p2","5f56p2","°","5f46p2",0.144,0.007,"L582"
96,"Cm XI",10,86,"Curium","Rn","Hg5f46p2","5f46p2",NA,"5f36p2°",0.167,0.008,"L582"
96,"Cm XII",11,85,"Curium","At","Hg5f36p2","5f36p2","°","5f26p2",0.19,0.01,"L582"
96,"Cm XIII",12,84,"Curium","Po","Hg5f26p2","5f26p2",NA,"5f6p2°",0.213,0.011,"L582"
96,"Cm XIV",13,83,"Curium","Bi","Hg5f6p2","5f6p2","°","5f6p",0.235,0.012,"L582"
96,"Cm XV",14,82,"Curium","Pb","Hg5f6p","5f6p",NA,"5f 2F°5/2",0.253,0.012,"L582"
96,"Cm XVI",15,81,"Curium","Tl","Hg5f","5f","2F°5/2","6s2 1S0",0.272,0.014,"L582"
96,"Cm XVII",16,80,"Curium","Hg","Xe4f145d106s2","6s2","1S0","6s 2S1/2",0.311,0.003,"L8672c99"
96,"Cm XVIII",17,79,"Curium","Au","Xe4f145d106s","6s","2S1/2","5d10 1S0",0.332,0.003,"L8672c99"
96,"Cm XIX",18,78,"Curium","Pt","Xe4f145d10","5d10","1S0","5d9 2D5/2",0.46,0.003,"L8672c99"
96,"Cm XX",19,77,"Curium","Ir","Xe4f145d9","5d9","2D5/2","5d8 3F4",0.489,0.004,"L8672c99"
96,"Cm XXI",20,76,"Curium","Os","Xe4f145d8","5d8","3F4","5d7 4F9/2",0.518,0.004,"L8672c99"
96,"Cm XXII",21,75,"Curium","Re","Xe4f145d7","5d7","4F9/2","5d6 5D4",0.55,0.004,"L8672c99"
96,"Cm XXIII",22,74,"Curium","W","Xe4f145d6","5d6","5D4","5d5 6S5/2",0.58,0.004,"L8672c99"
96,"Cm XXIV",23,73,"Curium","Ta","Xe4f145d5","5d5","6S5/2","5d4 5D0",0.611,0.004,"L8672c99"
96,"Cm XXV",24,72,"Curium","Hf","Xe4f145d4","5d4","5D0","5d3 4F3/2",0.657,0.004,"L8672c99"
96,"Cm XXVI",25,71,"Curium","Lu","Xe4f145d3","5d3","4F3/2","5d2 3F2",0.689,0.004,"L8672c99"
96,"Cm XXVII",26,70,"Curium","Yb","Xe4f145d2","5d2","3F2","5d 2D3/2",0.723,0.004,"L8672c99"
96,"Cm XXVIII",27,69,"Curium","Tm","Xe4f145d","5d","2D3/2","4f14 1S0",0.755,0.004,"L8672c99"
96,"Cm XXIX",28,68,"Curium","Er","Xe4f14","4f14","1S0","4f145p5 2P°3/2",0.91,0.05,"L582"
96,"Cm XXX",29,67,"Curium","Ho","Cd4f145p5","4f145p5","2P°3/2","4f145p4 3P2",0.95,0.05,"L582"
96,"Cm XXXI",30,66,"Curium","Dy","Cd4f145p4","4f145p4","3P2","4f145p3 2P°3/2",0.99,0.05,"L582"
96,"Cm XXXII",31,65,"Curium","Tb","Cd4f145p3","4f145p3","2P°3/2","4f145p2 3P0",1.03,0.05,"L582"
96,"Cm XXXIII",32,64,"Curium","Gd","Cd4f145p2","4f145p2","3P0","4f145p 2P°1/2",1.14,0.06,"L582"
96,"Cm XXXIV",33,63,"Curium","Eu","Cd4f145p","4f145p","2P°1/2","4f14 1S0",1.18,0.06,"L582"
96,"Cm XXXV",34,62,"Curium","Sm","Cd4f14","4f14","1S0","4f145s 2S1/2",1.3,0.06,"L582"
96,"Cm XXXVI",35,61,"Curium","Pm","Kr4d104f145s","4f145s","2S1/2","4f14 1S0",1.34,0.07,"L582"
96,"Cm XXXVII",36,60,"Curium","Nd","Kr4d104f14","4f14","1S0","4f13 2F°7/2",1.48,0.07,"L582"
96,"Cm XXXVIII",37,59,"Curium","Pr","Kr4d104f13","4f13","2F°7/2","4f12",1.56,0.08,"L582"
96,"Cm XXXIX",38,58,"Curium","Ce","Kr4d104f12","4f12",NA,"4f11 4I°15/2",1.65,0.08,"L582"
96,"Cm XL",39,57,"Curium","La","Kr4d104f11","4f11","4I°15/2","4f10 5I8",1.73,0.09,"L582"
96,"Cm XLI",40,56,"Curium","Ba","Kr4d104f10","4f10","5I8","4f9 6H°15/2",1.81,0.09,"L582"
96,"Cm XLII",41,55,"Curium","Cs","Kr4d104f9","4f9","6H°15/2","4f8 7F6",1.89,0.09,"L582"
96,"Cm XLIII",42,54,"Curium","Xe","Kr4d104f8","4f8","7F6","4f7 8S°7/2",1.98,0.1,"L582"
96,"Cm XLIV",43,53,"Curium","I","Kr4d104f7","4f7","8S°7/2","4f6 7F0",2.06,0.1,"L582"
96,"Cm XLV",44,52,"Curium","Te","Kr4d104f6","4f6","7F0","4f5 6H°5/2",2.16,0.11,"L582"
96,"Cm XLVI",45,51,"Curium","Sb","Kr4d104f5","4f5","6H°5/2","4f4 5I4",2.24,0.11,"L582"
96,"Cm XLVII",46,50,"Curium","Sn","Kr4d104f4","4f4","5I4","4f3 4I°9/2",2.32,0.12,"L582"
96,"Cm XLVIII",47,49,"Curium","In","Kr4d104f3","4f3","4I°9/2","4f2 3H4",2.41,0.12,"L582"
96,"Cm XLIX",48,48,"Curium","Cd","Kr4d104f2","4f2","3H4","4f 2F°5/2",2.49,0.12,"L582"
96,"Cm L",49,47,"Curium","Ag","Kr4d104f","4f","2F°5/2","4d10 1S0",2.58,0.12,"L582"
96,"Cm LI",50,46,"Curium","Pd","Kr4d10","4d10","1S0","4d9 2D5/2",2.976,0.004,"L8672c99"
96,"Cm LII",51,45,"Curium","Rh","Kr4d9","4d9","2D5/2","4d8 3F4",3.05,0.004,"L8672c99"
96,"Cm LIII",52,44,"Curium","Ru","Kr4d8","4d8","3F4","4d7 4F9/2",3.125,0.004,"L8672c99"
96,"Cm LIV",53,43,"Curium","Tc","Kr4d7","4d7","4F9/2","4d6 5D4",3.207,0.005,"L8672c99"
96,"Cm LV",54,42,"Curium","Mo","Kr4d6","4d6","5D4","4d5 5/2",3.284,0.005,"L8672c99"
96,"Cm LVI",55,41,"Curium","Nb","Kr4d5","4d5","5/2","4d4 5D0",3.36,0.005,"L8672c99"
96,"Cm LVII",56,40,"Curium","Zr","Kr4d4","4d4","5D0","4d3 4F3/2",3.515,0.005,"L8672c99"
96,"Cm LVIII",57,39,"Curium","Y","Kr4d3","4d3","4F3/2","4d2 3F2",3.593,0.006,"L8672c99"
96,"Cm LIX",58,38,"Curium","Sr","Kr4d2","4d2","3F2","4d 2D3/2",3.679,0.006,"L8672c99"
96,"Cm LX",59,37,"Curium","Rb","Kr4d","4d","2D3/2","4p6 1S0",3.758,0.007,"L8672c99"
96,"Cm LXI",60,36,"Curium","Kr","Ar3d104s24p6","4p6","1S0","4p5 2P°3/2",4.078,0.01,"L8672c99"
96,"Cm LXII",61,35,"Curium","Br","Ar3d104s24p5","4p5","2P°3/2","4p4 3P2",4.156,0.012,"L8672c99"
96,"Cm LXIII",62,34,"Curium","Se","Ar3d104s24p4","4p4","3P2","4p3°3/2",4.239,0.015,"L8672c99"
96,"Cm LXIV",63,33,"Curium","As","Ar3d104s24p3","4p3","°3/2","4p2 3P0",4.317,0.019,"L8672c99"
96,"Cm LXV",64,32,"Curium","Ge","Ar3d104s24p2","4p2","3P0","4p 2P°1/2",4.791,0.024,"L8672c99"
96,"Cm LXVI",65,31,"Curium","Ga","Ar3d104s24p","4p","2P°1/2","4s2 1S0",4.88,0.03,"L8672c99"
96,"Cm LXVII",66,30,"Curium","Zn","Ar3d104s2","4s2","1S0","4s 2S1/2",5.11,0.04,"L8672c99"
96,"Cm LXVIII",67,29,"Curium","Cu","Ar3d104s","4s","2S1/2","3d10 1S0",5.2,0.04,"L8672c99"
96,"Cm LXIX",68,28,"Curium","Ni","Ar3d10","3d10","1S0","3d9 2D5/2",8.27,0.05,"L8672c99"
96,"Cm LXX",69,27,"Curium","Co","Ar3d9","3d9","2D5/2","3d8 3F4",8.44,0.05,"L8672c99"
96,"Cm LXXI",70,26,"Curium","Fe","Ar3d8","3d8","3F4","3d7 4F9/2",8.62,0.06,"L8672c99"
96,"Cm LXXII",71,25,"Curium","Mn","Ar3d7","3d7","4F9/2","3d6 4",8.82,0.06,"L8672c99"
96,"Cm LXXIII",72,24,"Curium","Cr","Ar3d6","3d6","4","3d5 5/2",9,0.07,"L8672c99"
96,"Cm LXXIV",73,23,"Curium","V","Ar3d5","3d5","5/2","3d4 5D0",9.18,0.09,"L8672c99"
96,"Cm LXXV",74,22,"Curium","Ti","Ar3d4","3d4","5D0","3d3 4F3/2",9.63,0.09,"L8672c99"
96,"Cm LXXVI",75,21,"Curium","Sc","Ar3d3","3d3","4F3/2","3d2 3F2",9.82,0.1,"L8672c99"
96,"Cm LXXVII",76,20,"Curium","Ca","Ar3d2","3d2","3F2","3d 2D3/2",10.02,0.11,"L8672c99"
96,"Cm LXXVIII",77,19,"Curium","K","Ar3d","3d","2D3/2","3p6 1S0",10.22,0.12,"L8672c99"
96,"Cm LXXIX",78,18,"Curium","Ar","Ne3s23p6","3p6","1S0","3p5 2P°3/2",10.76,0.12,"L8672c99"
96,"Cm LXXX",79,17,"Curium","Cl","Ne3s23p5","3p5","2P°3/2","3p4 3P2",10.92,0.14,"L8672c99"
96,"Cm LXXXI",80,16,"Curium","S","Ne3s23p4","3p4","3P2","3p3 2P°3/2",11.1,0.15,"L8672c99"
96,"Cm LXXXII",81,15,"Curium","P","Ne3s23p3","3p3","2P°3/2","3p2 3P0",11.27,0.16,"L8672c99"
96,"Cm LXXXIII",82,14,"Curium","Si","Ne3s23p2","3p2","3P0","3p 2P°1/2",12.74,0.17,"L8672c99"
96,"Cm LXXXIV",83,13,"Curium","Al","Ne3s23p","3p","2P°1/2","3s2 1S0",12.95,0.19,"L8672c99"
96,"Cm LXXXV",84,12,"Curium","Mg","Ne3s2","3s2","1S0","3s 2S1/2",13.35,0.2,"L8672c99"
96,"Cm LXXXVI",85,11,"Curium","Na","Ne3s","3s","2S1/2","2p6 1S0",13.55,0.22,"L8672c99"
96,"Cm LXXXVII",86,10,"Curium","Ne","1s22s22p6","2p6","1S0","2p5 2P°3/2",27.74,0.24,"L8672c99"
96,"Cm LXXXVIII",87,9,"Curium","F","1s22s22p5","2p5","2P°3/2","2p4 3P2",28.18,0.25,"L8672c99"
96,"Cm LXXXIX",88,8,"Curium","O","1s22s22p4","2p4","3P2","2p21/22p3/2 0,3/2°3/2",28.7,0.3,"L8672c99"
96,"Cm XC",89,7,"Curium","N","1s22s22p3","2p21/22p3/2","0,3/2°3/2","2p2 3P0",29.1,0.3,"L8672c99"
96,"Cm XCI",90,6,"Curium","C","1s22s22p2","2p2","3P0","2p 2P°1/2",34.6,0.3,"L8672c99"
96,"Cm XCII",91,5,"Curium","B","1s22s22p","2p","2P°1/2","2s2 1S0",35.2,0.3,"L8672c99"
96,"Cm XCIII",92,4,"Curium","Be","1s22s2","2s2","1S0","2s 2S1/2",36,0.4,"L8672c99"
96,"Cm XCIV",93,3,"Curium","Li","1s22s","2s","2S1/2","1s2 1S0",36.493,9e-04,"L16264c99"
96,"Cm XCV",94,2,"Curium","He","1s2","1s2","1S0","1s 2S1/2",143.2996,0.0012,"L10054"
96,"Cm XCVI",95,1,"Curium","H","1s","1s","2S1/2",NA,145.743,0.004,"L7188"
97,"Bk I",0,97,"Berkelium","Bk","Rn5f97s2","5f97s2","6H°15/2","5f97s 7H°8",0.00619785,2.5e-07,"L15992"
97,"Bk II",1,96,"Berkelium","Cm","Rn5f97s","5f97s","7H°8","5f9 6H°15/2",0.0119,4e-04,"L13741c99"
97,"Bk III",2,95,"Berkelium","Am","Rn5f9","5f9","6H°15/2","5f8 7F6",0.0216,4e-04,"L13741c99"
97,"Bk IV",3,94,"Berkelium","Pu","Rn5f8","5f8","7F6","5f7 8S°7/2",0.036,4e-04,"L13741c99"
97,"Bk V",4,93,"Berkelium","Np","Rn5f7","5f7","8S°7/2","5f6 7F0",0.056,0.0019,"L8672c99"
97,"Bk VI",5,92,"Berkelium","U","Rn5f6","5f6","7F0","5f5 6H°5/2",0.0701,0.002,"L8672c99"
97,"Bk VII",6,91,"Berkelium","Pa","Rn5f5","5f5","6H°5/2","5f4 5I4",0.09,0.002,"L8672c99"
97,"Bk VIII",7,90,"Berkelium","Th","Rn5f4","5f4","5I4","5f66p3",0.114,0.006,"L582"
97,"Bk IX",8,89,"Berkelium","Ac","Hg5f66p3","5f66p3","°","5f66p2",0.13,0.006,"L582"
97,"Bk X",9,88,"Berkelium","Ra","Hg5f66p2","5f66p2",NA,"5f56p2°",0.147,0.007,"L582"
97,"Bk XI",10,87,"Berkelium","Fr","Hg5f56p2","5f56p2","°","5f46p2",0.171,0.009,"L582"
97,"Bk XII",11,86,"Berkelium","Rn","Hg5f46p2","5f46p2",NA,"5f36p2°",0.195,0.01,"L582"
97,"Bk XIII",12,85,"Berkelium","At","Hg5f36p2","5f36p2","°","5f26p2",0.218,0.011,"L582"
97,"Bk XIV",13,84,"Berkelium","Po","Hg5f26p2","5f26p2",NA,"5f26p°",0.24,0.012,"L582"
97,"Bk XV",14,83,"Berkelium","Bi","Hg5f26p","5f26p","°","5f2",0.259,0.012,"L582"
97,"Bk XVI",15,82,"Berkelium","Pb","Hg5f2","5f2",NA,"5f 2F°5/2",0.279,0.014,"L582"
97,"Bk XVII",16,81,"Berkelium","Tl","Hg5f","5f","2F°5/2","6s2 1S0",0.303,0.015,"L582"
97,"Bk XVIII",17,80,"Berkelium","Hg","Xe4f145d106s2","6s2","1S0","6s 2S1/2",0.339,0.003,"L8672c99"
97,"Bk XIX",18,79,"Berkelium","Au","Xe4f145d106s","6s","2S1/2","5d10 1S0",0.361,0.003,"L8672c99"
97,"Bk XX",19,78,"Berkelium","Pt","Xe4f145d10","5d10","1S0","5d9 2D5/2",0.497,0.004,"L8672c99"
97,"Bk XXI",20,77,"Berkelium","Ir","Xe4f145d9","5d9","2D5/2","5d8 3F4",0.526,0.004,"L8672c99"
97,"Bk XXII",21,76,"Berkelium","Os","Xe4f145d8","5d8","3F4","5d7 4F9/2",0.557,0.004,"L8672c99"
97,"Bk XXIII",22,75,"Berkelium","Re","Xe4f145d7","5d7","4F9/2","5d6 5D4",0.59,0.004,"L8672c99"
97,"Bk XXIV",23,74,"Berkelium","W","Xe4f145d6","5d6","5D4","5d5 6S5/2",0.621,0.004,"L8672c99"
97,"Bk XXV",24,73,"Berkelium","Ta","Xe4f145d5","5d5","6S5/2","5d4 5D0",0.652,0.004,"L8672c99"
97,"Bk XXVI",25,72,"Berkelium","Hf","Xe4f145d4","5d4","5D0","5d3 4F3/2",0.7,0.004,"L8672c99"
97,"Bk XXVII",26,71,"Berkelium","Lu","Xe4f145d3","5d3","4F3/2","5d2 3F2",0.733,0.004,"L8672c99"
97,"Bk XXVIII",27,70,"Berkelium","Yb","Xe4f145d2","5d2","3F2","5d 2D3/2",0.768,0.004,"L8672c99"
97,"Bk XXIX",28,69,"Berkelium","Tm","Xe4f145d","5d","2D3/2","4f14 1S0",0.8,0.004,"L8672c99"
97,"Bk XXX",29,68,"Berkelium","Er","Xe4f14","4f14","1S0","4f145p5 2P°3/2",0.96,0.05,"L582"
97,"Bk XXXI",30,67,"Berkelium","Ho","Cd4f145p5","4f145p5","2P°3/2","4f145p4 3P2",1,0.05,"L582"
97,"Bk XXXII",31,66,"Berkelium","Dy","Cd4f145p4","4f145p4","3P2","4f145p3 2P°3/2",1.04,0.05,"L582"
97,"Bk XXXIII",32,65,"Berkelium","Tb","Cd4f145p3","4f145p3","2P°3/2","4f145p2 3P0",1.08,0.05,"L582"
97,"Bk XXXIV",33,64,"Berkelium","Gd","Cd4f145p2","4f145p2","3P0","4f145p 2P°1/2",1.2,0.06,"L582"
97,"Bk XXXV",34,63,"Berkelium","Eu","Cd4f145p","4f145p","2P°1/2","4f14 1S0",1.24,0.06,"L582"
97,"Bk XXXVI",35,62,"Berkelium","Sm","Cd4f14","4f14","1S0","4f145s 2S1/2",1.36,0.07,"L582"
97,"Bk XXXVII",36,61,"Berkelium","Pm","Kr4d104f145s","4f145s","2S1/2","4f14 1S0",1.41,0.07,"L582"
97,"Bk XXXVIII",37,60,"Berkelium","Nd","Kr4d104f14","4f14","1S0","4f13 2F°7/2",1.55,0.08,"L582"
97,"Bk XXXIX",38,59,"Berkelium","Pr","Kr4d104f13","4f13","2F°7/2","4f12",1.63,0.08,"L582"
97,"Bk XL",39,58,"Berkelium","Ce","Kr4d104f12","4f12",NA,"4f11 4I°15/2",1.72,0.09,"L582"
97,"Bk XLI",40,57,"Berkelium","La","Kr4d104f11","4f11","4I°15/2","4f10 5I8",1.8,0.09,"L582"
97,"Bk XLII",41,56,"Berkelium","Ba","Kr4d104f10","4f10","5I8","4f9 6H°15/2",1.89,0.09,"L582"
97,"Bk XLIII",42,55,"Berkelium","Cs","Kr4d104f9","4f9","6H°15/2","4f8 7F6",1.97,0.1,"L582"
97,"Bk XLIV",43,54,"Berkelium","Xe","Kr4d104f8","4f8","7F6","4f7 8S°7/2",2.05,0.1,"L582"
97,"Bk XLV",44,53,"Berkelium","I","Kr4d104f7","4f7","8S°7/2","4f6 7F0",2.14,0.11,"L582"
97,"Bk XLVI",45,52,"Berkelium","Te","Kr4d104f6","4f6","7F0","4f5 6H°5/2",2.24,0.11,"L582"
97,"Bk XLVII",46,51,"Berkelium","Sb","Kr4d104f5","4f5","6H°5/2","4f4 5I4",2.32,0.12,"L582"
97,"Bk XLVIII",47,50,"Berkelium","Sn","Kr4d104f4","4f4","5I4","4f3 4I°9/2",2.41,0.12,"L582"
97,"Bk XLIX",48,49,"Berkelium","In","Kr4d104f3","4f3","4I°9/2","4f2 3H4",2.49,0.12,"L582"
97,"Bk L",49,48,"Berkelium","Cd","Kr4d104f2","4f2","3H4","4f 2F°5/2",2.58,0.12,"L582"
97,"Bk LI",50,47,"Berkelium","Ag","Kr4d104f","4f","2F°5/2","4d10 1S0",2.67,0.14,"L582"
97,"Bk LII",51,46,"Berkelium","Pd","Kr4d10","4d10","1S0","4d9 2D5/2",3.08,0.004,"L8672c99"
97,"Bk LIII",52,45,"Berkelium","Rh","Kr4d9","4d9","2D5/2","4d8 3F4",3.154,0.004,"L8672c99"
97,"Bk LIV",53,44,"Berkelium","Ru","Kr4d8","4d8","3F4","4d7 4F9/2",3.232,0.005,"L8672c99"
97,"Bk LV",54,43,"Berkelium","Tc","Kr4d7","4d7","4F9/2","4d6 5D4",3.315,0.005,"L8672c99"
97,"Bk LVI",55,42,"Berkelium","Mo","Kr4d6","4d6","5D4","4d5 5/2",3.393,0.005,"L8672c99"
97,"Bk LVII",56,41,"Berkelium","Nb","Kr4d5","4d5","5/2","4d4 5D0",3.469,0.005,"L8672c99"
97,"Bk LVIII",57,40,"Berkelium","Zr","Kr4d4","4d4","5D0","4d3 4F3/2",3.63,0.006,"L8672c99"
97,"Bk LIX",58,39,"Berkelium","Y","Kr4d3","4d3","4F3/2","4d2 3F2",3.709,0.006,"L8672c99"
97,"Bk LX",59,38,"Berkelium","Sr","Kr4d2","4d2","3F2","4d 2D3/2",3.797,0.007,"L8672c99"
97,"Bk LXI",60,37,"Berkelium","Rb","Kr4d","4d","2D3/2","4p6 1S0",3.877,0.01,"L8672c99"
97,"Bk LXII",61,36,"Berkelium","Kr","Ar3d104s24p6","4p6","1S0","4p5 2P°3/2",4.202,0.012,"L8672c99"
97,"Bk LXIII",62,35,"Berkelium","Br","Ar3d104s24p5","4p5","2P°3/2","4p4 3P2",4.281,0.015,"L8672c99"
97,"Bk LXIV",63,34,"Berkelium","Se","Ar3d104s24p4","4p4","3P2","4p3°3/2",4.365,0.019,"L8672c99"
97,"Bk LXV",64,33,"Berkelium","As","Ar3d104s24p3","4p3","°3/2","4p2 3P0",4.445,0.024,"L8672c99"
97,"Bk LXVI",65,32,"Berkelium","Ge","Ar3d104s24p2","4p2","3P0","4p 2P°1/2",4.94,0.03,"L8672c99"
97,"Bk LXVII",66,31,"Berkelium","Ga","Ar3d104s24p","4p","2P°1/2","4s2 1S0",5.04,0.04,"L8672c99"
97,"Bk LXVIII",67,30,"Berkelium","Zn","Ar3d104s2","4s2","1S0","4s 2S1/2",5.27,0.04,"L8672c99"
97,"Bk LXIX",68,29,"Berkelium","Cu","Ar3d104s","4s","2S1/2","3d10 1S0",5.36,0.05,"L8672c99"
97,"Bk LXX",69,28,"Berkelium","Ni","Ar3d10","3d10","1S0","3d9 2D5/2",8.5,0.05,"L8672c99"
97,"Bk LXXI",70,27,"Berkelium","Co","Ar3d9","3d9","2D5/2","3d8 3F4",8.67,0.06,"L8672c99"
97,"Bk LXXII",71,26,"Berkelium","Fe","Ar3d8","3d8","3F4","3d7 4F9/2",8.85,0.06,"L8672c99"
97,"Bk LXXIII",72,25,"Berkelium","Mn","Ar3d7","3d7","4F9/2","3d6 4",9.05,0.07,"L8672c99"
97,"Bk LXXIV",73,24,"Berkelium","Cr","Ar3d6","3d6","4","3d5 5/2",9.24,0.09,"L8672c99"
97,"Bk LXXV",74,23,"Berkelium","V","Ar3d5","3d5","5/2","3d4 5D0",9.42,0.09,"L8672c99"
97,"Bk LXXVI",75,22,"Berkelium","Ti","Ar3d4","3d4","5D0","3d3 4F3/2",9.88,0.1,"L8672c99"
97,"Bk LXXVII",76,21,"Berkelium","Sc","Ar3d3","3d3","4F3/2","3d2 3F2",10.07,0.11,"L8672c99"
97,"Bk LXXVIII",77,20,"Berkelium","Ca","Ar3d2","3d2","3F2","3d 2D3/2",10.28,0.12,"L8672c99"
97,"Bk LXXIX",78,19,"Berkelium","K","Ar3d","3d","2D3/2","3p6 1S0",10.48,0.12,"L8672c99"
97,"Bk LXXX",79,18,"Berkelium","Ar","Ne3s23p6","3p6","1S0","3p5 2P°3/2",11.02,0.14,"L8672c99"
97,"Bk LXXXI",80,17,"Berkelium","Cl","Ne3s23p5","3p5","2P°3/2","3p4 3P2",11.19,0.15,"L8672c99"
97,"Bk LXXXII",81,16,"Berkelium","S","Ne3s23p4","3p4","3P2","3p3 2P°3/2",11.38,0.16,"L8672c99"
97,"Bk LXXXIII",82,15,"Berkelium","P","Ne3s23p3","3p3","2P°3/2","3p2 3P0",11.55,0.17,"L8672c99"
97,"Bk LXXXIV",83,14,"Berkelium","Si","Ne3s23p2","3p2","3P0","3p 2P°1/2",13.09,0.19,"L8672c99"
97,"Bk LXXXV",84,13,"Berkelium","Al","Ne3s23p","3p","2P°1/2","3s2 1S0",13.3,0.2,"L8672c99"
97,"Bk LXXXVI",85,12,"Berkelium","Mg","Ne3s2","3s2","1S0","3s 2S1/2",13.72,0.22,"L8672c99"
97,"Bk LXXXVII",86,11,"Berkelium","Na","Ne3s","3s","2S1/2","2p6 1S0",13.91,0.24,"L8672c99"
97,"Bk LXXXVIII",87,10,"Berkelium","Ne","1s22s22p6","2p6","1S0","2p5 2P°3/2",28.38,0.25,"L8672c99"
97,"Bk LXXXIX",88,9,"Berkelium","F","1s22s22p5","2p5","2P°3/2","2p4 3P2",28.8,0.3,"L8672c99"
97,"Bk XC",89,8,"Berkelium","O","1s22s22p4","2p4","3P2","2p21/22p3/2 0,3/2°3/2",29.3,0.3,"L8672c99"
97,"Bk XCI",90,7,"Berkelium","N","1s22s22p3","2p21/22p3/2","0,3/2°3/2","2p2 3P0",29.8,0.3,"L8672c99"
97,"Bk XCII",91,6,"Berkelium","C","1s22s22p2","2p2","3P0","2p 2P°1/2",35.5,0.3,"L8672c99"
97,"Bk XCIII",92,5,"Berkelium","B","1s22s22p","2p","2P°1/2","2s2 1S0",36.2,0.4,"L8672c99"
97,"Bk XCIV",93,4,"Berkelium","Be","1s22s2","2s2","1S0","2s 2S1/2",37,0.4,"L8672c99"
97,"Bk XCV",94,3,"Berkelium","Li","1s22s","2s","2S1/2","1s2 1S0",37.4576,9e-04,"L16264c99"
97,"Bk XCVI",95,2,"Berkelium","He","1s2","1s2","1S0","1s 2S1/2",146.9047,0.0014,"L10054"
97,"Bk XCVII",96,1,"Berkelium","H","1s","1s","2S1/2",NA,149.398,0.004,"L7188"
98,"Cf I",0,98,"Californium","Cf","Rn5f107s2","5f107s2","5I8","5f107s 6I17/2",0.00628166,2.5e-07,"L15992"
98,"Cf II",1,97,"Californium","Bk","Rn5f107s","5f107s","6I17/2","5f10 5I8",0.012,4e-04,"L13741c99"
98,"Cf III",2,96,"Californium","Cm","Rn5f10","5f10","5I8","5f9 6H°15/2",0.0224,4e-04,"L13741c99"
98,"Cf IV",3,95,"Californium","Am","Rn5f9","5f9","6H°15/2","5f8 7F6",0.0377,4e-04,"L13741c99"
98,"Cf V",4,94,"Californium","Pu","Rn5f8","5f8","7F6","5f7 8S°7/2",0.0519,0.0019,"L8672c99"
98,"Cf VI",5,93,"Californium","Np","Rn5f7","5f7","8S°7/2","5f6 7F0",0.075,0.002,"L8672c99"
98,"Cf VII",6,92,"Californium","U","Rn5f6","5f6","7F0","5f5 6H°5/2",0.091,0.002,"L8672c99"
98,"Cf VIII",7,91,"Californium","Pa","Rn5f5","5f5","6H°5/2","5f4 5I4",0.1129,0.0021,"L8672c99"
98,"Cf IX",8,90,"Californium","Th","Rn5f4","5f4","5I4","5f76p2",0.133,0.006,"L582"
98,"Cf X",9,89,"Californium","Ac","Hg5f76p2","5f76p2","°","5f66p2",0.152,0.007,"L582"
98,"Cf XI",10,88,"Californium","Ra","Hg5f66p2","5f66p2",NA,"5f56p2°",0.178,0.009,"L582"
98,"Cf XII",11,87,"Californium","Fr","Hg5f56p2","5f56p2","°","5f46p2",0.201,0.01,"L582"
98,"Cf XIII",12,86,"Californium","Rn","Hg5f46p2","5f46p2",NA,"5f36p2°",0.225,0.011,"L582"
98,"Cf XIV",13,85,"Californium","At","Hg5f36p2","5f36p2","°","5f36p",0.247,0.012,"L582"
98,"Cf XV",14,84,"Californium","Po","Hg5f36p","5f36p",NA,"5f3°",0.265,0.014,"L582"
98,"Cf XVI",15,83,"Californium","Bi","Hg5f3","5f3","°","5f2",0.286,0.015,"L582"
98,"Cf XVII",16,82,"Californium","Pb","Hg5f2","5f2",NA,"5f 2F°5/2",0.31,0.015,"L582"
98,"Cf XVIII",17,81,"Californium","Tl","Hg5f","5f","2F°5/2","6s2 1S0",0.334,0.016,"L582"
98,"Cf XIX",18,80,"Californium","Hg","Xe4f145d106s2","6s2","1S0","6s 2S1/2",0.368,0.003,"L8672c99"
98,"Cf XX",19,79,"Californium","Au","Xe4f145d106s","6s","2S1/2","5d10 1S0",0.39,0.004,"L8672c99"
98,"Cf XXI",20,78,"Californium","Pt","Xe4f145d10","5d10","1S0","5d9 2D5/2",0.536,0.004,"L8672c99"
98,"Cf XXII",21,77,"Californium","Ir","Xe4f145d9","5d9","2D5/2","5d8 3F4",0.566,0.004,"L8672c99"
98,"Cf XXIII",22,76,"Californium","Os","Xe4f145d8","5d8","3F4","5d7 4F9/2",0.597,0.004,"L8672c99"
98,"Cf XXIV",23,75,"Californium","Re","Xe4f145d7","5d7","4F9/2","5d6 5D4",0.63,0.004,"L8672c99"