"Z","Species","CS","Occ","Element","Iso_elec","Ground_Shells","Ground_Config","Ground_Level","Ionized_Level","IE","IE_uncertainty","References"
46,"Pd XLV",44,2,"Palladium","He","1s2","1s2","1S0","1s 2S1/2",28.776034,9e-06,"L12128"
46,"Pd XLVI",45,1,"Palladium","H","1s","1s","2S1/2",NA,29.6226,4e-05,"L7188"
47,"Ag I",0,47,"Silver","Ag","Kr4d105s","4d105s","2S1/2","4d10 1S0",0.007576234,2.5e-08,"L11835"
47,"Ag II",1,46,"Silver","Pd","Kr4d10","4d10","1S0","4d9 2D5/2",0.0214844,9e-07,"L18362"
47,"Ag III",2,45,"Silver","Rh","Kr4d9","4d9","2D5/2","4d8 3F4",0.0348,3e-04,"L17276"
47,"Ag IV",3,44,"Silver","Ru","Kr4d8","4d8","3F4","4d7 4F9/2",0.049,0.0017,"L8672c99"
47,"Ag V",4,43,"Silver","Tc","Kr4d7","4d7","4F9/2","4d6 5D4",0.065,0.0019,"L8672c99"
47,"Ag VI",5,42,"Silver","Mo","Kr4d6","4d6","5D4","4d5 6S5/2",0.082,0.002,"L8672c99"
47,"Ag VII",6,41,"Silver","Nb","Kr4d5","4d5","6S5/2","4d4 5D0",0.106,0.002,"L8672c99"
47,"Ag VIII",7,40,"Silver","Zr","Kr4d4","4d4","5D0","4d3 4F3/2",0.125,0.0021,"L8672c99"
47,"Ag IX",8,39,"Silver","Y","Kr4d3","4d3","4F3/2","4d2 3F2",0.1451,0.0022,"L8672c99"
47,"Ag X",9,38,"Silver","Sr","Kr4d2","4d2","3F2","4d 2D3/2",0.167,0.0022,"L8672c99"
47,"Ag XI",10,37,"Silver","Rb","Kr4d","4d","2D3/2","4p6 1S0",0.188,0.0024,"L8672c99"
47,"Ag XII",11,36,"Silver","Kr","Ar3d104s24p6","4p6","1S0","4p5 2P°3/2",0.27146,0.00012,"L1798"
47,"Ag XIII",12,35,"Silver","Br","Ar3d104s24p5","4p5","2P°3/2","4p4 3P2",0.294,0.003,"L8672c99"
47,"Ag XIV",13,34,"Silver","Se","Ar3d104s24p4","4p4","3P2","4p3 4S°3/2",0.321,0.003,"L8672c99"
47,"Ag XV",14,33,"Silver","As","Ar3d104s24p3","4p3","4S°3/2","4p2 3P0",0.347,0.003,"L8672c99"
47,"Ag XVI",15,32,"Silver","Ge","Ar3d104s24p2","4p2","3P0","4p 2P°1/2",0.381,0.003,"L8672c99"
47,"Ag XVII",16,31,"Silver","Ga","Ar3d104s24p","4p","2P°1/2","4s2 1S0",0.40843,0.00016,"L6833"
47,"Ag XVIII",17,30,"Silver","Zn","Ar3d104s2","4s2","1S0","4s 2S1/2",0.469,0.003,"L8672c99"
47,"Ag XIX",18,29,"Silver","Cu","Ar3d104s","4s","2S1/2","3d10 1S0",0.50087,0.00016,"L5953"
47,"Ag XX",19,28,"Silver","Ni","Ar3d10","3d10","1S0","3d9 2D5/2",0.885,0.004,"L8672c99"
47,"Ag XXI",20,27,"Silver","Co","Ar3d9","3d9","2D5/2","3d8 3F4",0.946,0.004,"L8672c99"
47,"Ag XXII",21,26,"Silver","Fe","Ar3d8","3d8","3F4","3d7 4F9/2",1.013,0.004,"L8672c99"
47,"Ag XXIII",22,25,"Silver","Mn","Ar3d7","3d7","4F9/2","3d6 5D4",1.082,0.004,"L8672c99"
47,"Ag XXIV",23,24,"Silver","Cr","Ar3d6","3d6","5D4","3d5 6S5/2",1.149,0.004,"L8672c99"
47,"Ag XXV",24,23,"Silver","V","Ar3d5","3d5","6S5/2","3d4 5D0",1.231,0.004,"L8672c99"
47,"Ag XXVI",25,22,"Silver","Ti","Ar3d4","3d4","5D0","3d3 4F3/2",1.308,0.004,"L8672c99"
47,"Ag XXVII",26,21,"Silver","Sc","Ar3d3","3d3","4F3/2","3d2 3F2",1.382,0.004,"L8672c99"
47,"Ag XXVIII",27,20,"Silver","Ca","Ar3d2","3d2","3F2","3d 2D3/2",1.46,0.004,"L8672c99"
47,"Ag XXIX",28,19,"Silver","K","Ar3d","3d","2D3/2","3p6 1S0",1.535,0.004,"L8672c99"
47,"Ag XXX",29,18,"Silver","Ar","Ne3s23p6","3p6","1S0","3p5 2P°3/2",1.747,0.005,"L11770"
47,"Ag XXXI",30,17,"Silver","Cl","Ne3s23p5","3p5","2P°3/2","3p4 3P2",1.8105,0.0019,"L11770"
47,"Ag XXXII",31,16,"Silver","S","Ne3s23p4","3p4","3P2","3p3 4S°3/2",1.888,0.0024,"L11770"
47,"Ag XXXIII",32,15,"Silver","P","Ne3s23p3","3p3","4S°3/2","3p2 3P0",1.979,0.008,"L11770"
47,"Ag XXXIV",33,14,"Silver","Si","Ne3s23p2","3p2","3P0","3p 2P°1/2",2.077,0.004,"L11770"
47,"Ag XXXV",34,13,"Silver","Al","Ne3s23p","3p","2P°1/2","3s2 1S0",2.131,0.01,"L11770"
47,"Ag XXXVI",35,12,"Silver","Mg","Ne3s2","3s2","1S0","3s 2S1/2",2.302,0.003,"L11770"
47,"Ag XXXVII",36,11,"Silver","Na","Ne3s","3s","2S1/2","2p6 1S0",2.37199,7e-05,"L11770"
47,"Ag XXXVIII",37,10,"Silver","Ne","1s22s22p6","2p6","1S0","2p5 2P°3/2",5.558,0.003,"L11770"
47,"Ag XXXIX",38,9,"Silver","F","1s22s22p5","2p5","2P°3/2","2p4 3P2",5.753,0.009,"L11770"
47,"Ag XL",39,8,"Silver","O","1s22s22p4","2p4","3P2","2p21/22p3/2 0,3/2°3/2",5.966,0.012,"L11770"
47,"Ag XLI",40,7,"Silver","N","1s22s22p3","2p21/22p3/2","0,3/2°3/2","2p2 3P0",6.17,0.04,"L11770"
47,"Ag XLII",41,6,"Silver","C","1s22s22p2","2p2","3P0","2p 2P°1/2",6.551,0.007,"L11770"
47,"Ag XLIII",42,5,"Silver","B","1s22s22p","2p","2P°1/2","2s2 1S0",6.785,0.005,"L11770"
47,"Ag XLIV",43,4,"Silver","Be","1s22s2","2s2","1S0","2s 2S1/2",7.082,0.007,"L11770"
47,"Ag XLV",44,3,"Silver","Li","1s22s","2s","2S1/2","1s2 1S0",7.271298,2.4e-05,"L16264c99"
47,"Ag XLVI",45,2,"Silver","He","1s2","1s2","1S0","1s 2S1/2",30.097318,9e-06,"L12128"
47,"Ag XLVII",46,1,"Silver","H","1s","1s","2S1/2",NA,30.965698,2.5e-05,"L7188"
48,"Cd I",0,48,"Cadmium","Cd","Kr4d105s2","4d105s2","1S0","5s 2S1/2",0.00899382,1.6e-08,"L18843"
48,"Cd II",1,47,"Cadmium","Ag","Kr4d105s","4d105s","2S1/2","4d10 1S0",0.016908313,1.2e-08,"L3540"
48,"Cd III",2,46,"Cadmium","Pd","Kr4d10","4d10","1S0","4d9 2D5/2",0.037468,6e-06,"L11384"
48,"Cd IV",3,45,"Cadmium","Rh","Kr4d9","4d9","2D5/2","4d8 3F4",0.051,0.0017,"L8672c99"
48,"Cd V",4,44,"Cadmium","Ru","Kr4d8","4d8","3F4","4d7 4F9/2",0.0679,0.0019,"L8672c99"
48,"Cd VI",5,43,"Cadmium","Tc","Kr4d7","4d7","4F9/2","4d6 5D4",0.087,0.002,"L8672c99"
48,"Cd VII",6,42,"Cadmium","Mo","Kr4d6","4d6","5D4","4d5 6S5/2",0.105,0.002,"L8672c99"
48,"Cd VIII",7,41,"Cadmium","Nb","Kr4d5","4d5","6S5/2","4d4 5D0",0.1301,0.0021,"L8672c99"
48,"Cd IX",8,40,"Cadmium","Zr","Kr4d4","4d4","5D0","4d3 4F3/2",0.15,0.0022,"L8672c99"
48,"Cd X",9,39,"Cadmium","Y","Kr4d3","4d3","4F3/2","4d2 3F2",0.173,0.0022,"L8672c99"
48,"Cd XI",10,38,"Cadmium","Sr","Kr4d2","4d2","3F2","4d 2D3/2",0.195,0.0024,"L8672c99"
48,"Cd XII",11,37,"Cadmium","Rb","Kr4d","4d","2D3/2","4p6 1S0",0.218,0.0025,"L8672c99"
48,"Cd XIII",12,36,"Cadmium","Kr","Ar3d104s24p6","4p6","1S0","4p5 2P°3/2",0.305,0.003,"L8672c99"
48,"Cd XIV",13,35,"Cadmium","Br","Ar3d104s24p5","4p5","2P°3/2","4p4 3P2",0.329,0.003,"L8672c99"
48,"Cd XV",14,34,"Cadmium","Se","Ar3d104s24p4","4p4","3P2","4p3 4S°3/2",0.358,0.003,"L8672c99"
48,"Cd XVI",15,33,"Cadmium","As","Ar3d104s24p3","4p3","4S°3/2","4p2 3P0",0.385,0.003,"L8672c99"
48,"Cd XVII",16,32,"Cadmium","Ge","Ar3d104s24p2","4p2","3P0","4p 2P°1/2",0.421,0.003,"L8672c99"
48,"Cd XVIII",17,31,"Cadmium","Ga","Ar3d104s24p","4p","2P°1/2","4s2 1S0",0.4526,3e-04,"L6833"
48,"Cd XIX",18,30,"Cadmium","Zn","Ar3d104s2","4s2","1S0","4s 2S1/2",0.513,0.003,"L8672c99"
48,"Cd XX",19,29,"Cadmium","Cu","Ar3d104s","4s","2S1/2","3d10 1S0",0.54619,0.00017,"L5953"
48,"Cd XXI",20,28,"Cadmium","Ni","Ar3d10","3d10","1S0","3d9 2D5/2",0.963,0.004,"L8672c99"
48,"Cd XXII",21,27,"Cadmium","Co","Ar3d9","3d9","2D5/2","3d8 3F4",1.026,0.004,"L8672c99"
48,"Cd XXIII",22,26,"Cadmium","Fe","Ar3d8","3d8","3F4","3d7 4F9/2",1.095,0.004,"L8672c99"
48,"Cd XXIV",23,25,"Cadmium","Mn","Ar3d7","3d7","4F9/2","3d6 5D4",1.167,0.004,"L8672c99"
48,"Cd XXV",24,24,"Cadmium","Cr","Ar3d6","3d6","5D4","3d5 6S5/2",1.237,0.004,"L8672c99"
48,"Cd XXVI",25,23,"Cadmium","V","Ar3d5","3d5","6S5/2","3d4 5D0",1.32,0.004,"L8672c99"
48,"Cd XXVII",26,22,"Cadmium","Ti","Ar3d4","3d4","5D0","3d3 4F3/2",1.401,0.004,"L8672c99"
48,"Cd XXVIII",27,21,"Cadmium","Sc","Ar3d3","3d3","4F3/2","3d2 3F2",1.477,0.004,"L8672c99"
48,"Cd XXIX",28,20,"Cadmium","Ca","Ar3d2","3d2","3F2","3d 2D3/2",1.558,0.004,"L8672c99"
48,"Cd XXX",29,19,"Cadmium","K","Ar3d","3d","2D3/2","3p6 1S0",1.635,0.004,"L8672c99"
48,"Cd XXXI",30,18,"Cadmium","Ar","Ne3s23p6","3p6","1S0","3p5 2P°3/2",1.852,0.005,"L11770"
48,"Cd XXXII",31,17,"Cadmium","Cl","Ne3s23p5","3p5","2P°3/2","3p4 3P2",1.9179,0.002,"L11770"
48,"Cd XXXIII",32,16,"Cadmium","S","Ne3s23p4","3p4","3P2","3p3 4S°3/2",1.998,0.003,"L11770"
48,"Cd XXXIV",33,15,"Cadmium","P","Ne3s23p3","3p3","4S°3/2","3p2 3P0",2.091,0.008,"L11770"
48,"Cd XXXV",34,14,"Cadmium","Si","Ne3s23p2","3p2","3P0","3p 2P°1/2",2.195,0.004,"L11770"
48,"Cd XXXVI",35,13,"Cadmium","Al","Ne3s23p","3p","2P°1/2","3s2 1S0",2.25,0.01,"L11770"
48,"Cd XXXVII",36,12,"Cadmium","Mg","Ne3s2","3s2","1S0","3s 2S1/2",2.427,0.003,"L11770"
48,"Cd XXXVIII",37,11,"Cadmium","Na","Ne3s","3s","2S1/2","2p6 1S0",2.49862,8e-05,"L11770"
48,"Cd XXXIX",38,10,"Cadmium","Ne","1s22s22p6","2p6","1S0","2p5 2P°3/2",5.839,0.003,"L11770"
48,"Cd XL",39,9,"Cadmium","F","1s22s22p5","2p5","2P°3/2","2p4 3P2",6.039,0.009,"L11770"
48,"Cd XLI",40,8,"Cadmium","O","1s22s22p4","2p4","3P2","2p21/22p3/2 0,3/2°3/2",6.257,0.012,"L11770"
48,"Cd XLII",41,7,"Cadmium","N","1s22s22p3","2p21/22p3/2","0,3/2°3/2","2p2 3P0",6.46,0.04,"L11770"
48,"Cd XLIII",42,6,"Cadmium","C","1s22s22p2","2p2","3P0","2p 2P°1/2",6.869,0.008,"L11770"
48,"Cd XLIV",43,5,"Cadmium","B","1s22s22p","2p","2P°1/2","2s2 1S0",7.109,0.005,"L11770"
48,"Cd XLV",44,4,"Cadmium","Be","1s22s2","2s2","1S0","2s 2S1/2",7.414,0.007,"L11770"
48,"Cd XLVI",45,3,"Cadmium","Li","1s22s","2s","2S1/2","1s2 1S0",7.60795,3e-05,"L16264c99"
48,"Cd XLVII",46,2,"Cadmium","He","1s2","1s2","1S0","1s 2S1/2",31.451062,9e-06,"L12128"
48,"Cd XLVIII",47,1,"Cadmium","H","1s","1s","2S1/2",NA,32.34149,4e-05,"L7188"
49,"In I",0,49,"Indium","In","Cd5p","5s25p","2P°1/2","5s2 1S0",0.0057863557,7e-10,"L5566"
49,"In II",1,48,"Indium","Cd","Kr4d105s2","5s2","1S0","5s 2S1/2",0.01887041,3e-08,"L18318"
49,"In III",2,47,"Indium","Ag","Kr4d105s","4d105s","2S1/2","4d10 1S0",0.02804415,1.2e-07,"L4327"
49,"In IV",3,46,"Indium","Pd","Kr4d10","4d10","1S0","4d9 2D5/2",0.05545,4e-05,"L11384"
49,"In V",4,45,"Indium","Rh","Kr4d9","4d9","2D5/2","4d8 3F4",0.0693,0.0012,"L4316c99"
49,"In VI",5,44,"Indium","Ru","Kr4d8","4d8","3F4","4d7 4F9/2",0.09,0.002,"L8672c99"
49,"In VII",6,43,"Indium","Tc","Kr4d7","4d7","4F9/2","4d6 5D4",0.109,0.002,"L8672c99"
49,"In VIII",7,42,"Indium","Mo","Kr4d6","4d6","5D4","4d5 6S5/2",0.1301,0.0021,"L8672c99"
49,"In IX",8,41,"Indium","Nb","Kr4d5","4d5","6S5/2","4d4 5D0",0.156,0.0022,"L8672c99"
49,"In X",9,40,"Indium","Zr","Kr4d4","4d4","5D0","4d3 4F3/2",0.178,0.0022,"L8672c99"
49,"In XI",10,39,"Indium","Y","Kr4d3","4d3","4F3/2","4d2 3F2",0.201,0.0024,"L8672c99"
49,"In XII",11,38,"Indium","Sr","Kr4d2","4d2","3F2","4d 2D3/2",0.226,0.0025,"L8672c99"
49,"In XIII",12,37,"Indium","Rb","Kr4d","4d","2D3/2","4p6 1S0",0.249,0.003,"L8672c99"
49,"In XIV",13,36,"Indium","Kr","Ar3d104s24p6","4p6","1S0","4p5 2P°3/2",0.341,0.003,"L8672c99"
49,"In XV",14,35,"Indium","Br","Ar3d104s24p5","4p5","2P°3/2","4p4 3P2",0.368,0.003,"L8672c99"
49,"In XVI",15,34,"Indium","Se","Ar3d104s24p4","4p4","3P2","4p3 4S°3/2",0.396,0.003,"L8672c99"
49,"In XVII",16,33,"Indium","As","Ar3d104s24p3","4p3","4S°3/2","4p2 3P0",0.425,0.003,"L8672c99"
49,"In XVIII",17,32,"Indium","Ge","Ar3d104s24p2","4p2","3P0","4p 2P°1/2",0.462,0.003,"L8672c99"
49,"In XIX",18,31,"Indium","Ga","Ar3d104s24p","4p","2P°1/2","4s2 1S0",0.4971,3e-04,"L6833"
49,"In XX",19,30,"Indium","Zn","Ar3d104s2","4s2","1S0","4s 2S1/2",0.56,0.004,"L8672c99"
49,"In XXI",20,29,"Indium","Cu","Ar3d104s","4s","2S1/2","3d10 1S0",0.59338,2e-04,"L5953"
49,"In XXII",21,28,"Indium","Ni","Ar3d10","3d10","1S0","3d9 2D5/2",1.043,0.004,"L8672c99"
49,"In XXIII",22,27,"Indium","Co","Ar3d9","3d9","2D5/2","3d8 3F4",1.109,0.004,"L8672c99"
49,"In XXIV",23,26,"Indium","Fe","Ar3d8","3d8","3F4","3d7 4F9/2",1.181,0.004,"L8672c99"
49,"In XXV",24,25,"Indium","Mn","Ar3d7","3d7","4F9/2","3d6 5D4",1.255,0.004,"L8672c99"
49,"In XXVI",25,24,"Indium","Cr","Ar3d6","3d6","5D4","3d5 6S5/2",1.328,0.004,"L8672c99"
49,"In XXVII",26,23,"Indium","V","Ar3d5","3d5","6S5/2","3d4 5D0",1.413,0.004,"L8672c99"
49,"In XXVIII",27,22,"Indium","Ti","Ar3d4","3d4","5D0","3d3 4F3/2",1.496,0.004,"L8672c99"
49,"In XXIX",28,21,"Indium","Sc","Ar3d3","3d3","4F3/2","3d2 3F2",1.575,0.004,"L8672c99"
49,"In XXX",29,20,"Indium","Ca","Ar3d2","3d2","3F2","3d 2D3/2",1.659,0.004,"L8672c99"
49,"In XXXI",30,19,"Indium","K","Ar3d","3d","2D3/2","3p6 1S0",1.738,0.004,"L8672c99"
49,"In XXXII",31,18,"Indium","Ar","Ne3s23p6","3p6","1S0","3p5 2P°3/2",1.961,0.005,"L11770"
49,"In XXXIII",32,17,"Indium","Cl","Ne3s23p5","3p5","2P°3/2","3p4 3P2",2.0285,0.0021,"L11770"
49,"In XXXIV",33,16,"Indium","S","Ne3s23p4","3p4","3P2","3p3 4S°3/2",2.111,0.003,"L11770"
49,"In XXXV",34,15,"Indium","P","Ne3s23p3","3p3","4S°3/2","3p2 3P0",2.207,0.008,"L11770"
49,"In XXXVI",35,14,"Indium","Si","Ne3s23p2","3p2","3P0","3p 2P°1/2",2.317,0.005,"L11770"
49,"In XXXVII",36,13,"Indium","Al","Ne3s23p","3p","2P°1/2","3s2 1S0",2.373,0.011,"L11770"
49,"In XXXVIII",37,12,"Indium","Mg","Ne3s2","3s2","1S0","3s 2S1/2",2.555,0.003,"L11770"
49,"In XXXIX",38,11,"Indium","Na","Ne3s","3s","2S1/2","2p6 1S0",2.62877,8e-05,"L11770"
49,"In XL",39,10,"Indium","Ne","1s22s22p6","2p6","1S0","2p5 2P°3/2",6.126,0.003,"L11770"
49,"In XLI",40,9,"Indium","F","1s22s22p5","2p5","2P°3/2","2p4 3P2",6.331,0.01,"L11770"
49,"In XLII",41,8,"Indium","O","1s22s22p4","2p4","3P2","2p21/22p3/2 0,3/2°3/2",6.554,0.013,"L11770"
49,"In XLIII",42,7,"Indium","N","1s22s22p3","2p21/22p3/2","0,3/2°3/2","2p2 3P0",6.77,0.05,"L11770"
49,"In XLIV",43,6,"Indium","C","1s22s22p2","2p2","3P0","2p 2P°1/2",7.196,0.008,"L11770"
49,"In XLV",44,5,"Indium","B","1s22s22p","2p","2P°1/2","2s2 1S0",7.442,0.006,"L11770"
49,"In XLVI",45,4,"Indium","Be","1s22s2","2s2","1S0","2s 2S1/2",7.754,0.007,"L11770"
49,"In XLVII",46,3,"Indium","Li","1s22s","2s","2S1/2","1s2 1S0",7.95314,3e-05,"L16264c99"
49,"In XLVIII",47,2,"Indium","He","1s2","1s2","1S0","1s 2S1/2",32.837592,1e-05,"L12128"
49,"In XLIX",48,1,"Indium","H","1s","1s","2S1/2",NA,33.75031,4e-05,"L7188"
50,"Sn I",0,50,"Tin","Sn","Cd5p2","5s25p2","3P0","5s25p 2P°1/2",0.007343918,1.2e-08,"L3936"
50,"Sn II",1,49,"Tin","In","Cd5p","5s25p","2P°1/2","5s2 1S0",0.01463307,9e-08,"L18891"
50,"Sn III",2,48,"Tin","Cd","Kr4d105s2","4d105s2","1S0","5s 2S1/2",0.030506,3e-06,"L18161"
50,"Sn IV",3,47,"Tin","Ag","Kr4d105s","4d105s","2S1/2","4d10 1S0",0.04074,4e-05,"L3466c99"
50,"Sn V",4,46,"Tin","Pd","Kr4d10","4d10","1S0","4d9 2D5/2",0.07703,4e-05,"L11384"
50,"Sn VI",5,45,"Tin","Rh","Kr4d9","4d9","2D5/2","4d8 3F4",0.094,0.002,"L8672c99"
50,"Sn VII",6,44,"Tin","Ru","Kr4d8","4d8","3F4","4d7 4F9/2",0.1129,0.002,"L8672c99"
50,"Sn VIII",7,43,"Tin","Tc","Kr4d7","4d7","4F9/2","4d6 5D4",0.135,0.0021,"L8672c99"
50,"Sn IX",8,42,"Tin","Mo","Kr4d6","4d6","5D4","4d5 6S5/2",0.156,0.0022,"L8672c99"
50,"Sn X",9,41,"Tin","Nb","Kr4d5","4d5","6S5/2","4d4 5D0",0.184,0.0022,"L8672c99"
50,"Sn XI",10,40,"Tin","Zr","Kr4d4","4d4","5D0","4d3 4F3/2",0.208,0.0024,"L8672c99"
50,"Sn XII",11,39,"Tin","Y","Kr4d3","4d3","4F3/2","4d2 3F2",0.232,0.0025,"L8672c99"
50,"Sn XIII",12,38,"Tin","Sr","Kr4d2","4d2","3F2","4d 2D3/2",0.258,0.003,"L8672c99"
50,"Sn XIV",13,37,"Tin","Rb","Kr4d","4d","2D3/2","4p6 1S0",0.282,0.003,"L8672c99"
50,"Sn XV",14,36,"Tin","Kr","Ar3d104s24p6","4p6","1S0","4p5 2P°3/2",0.379,0.003,"L8672c99"
50,"Sn XVI",15,35,"Tin","Br","Ar3d104s24p5","4p5","2P°3/2","4p4 3P2",0.407,0.003,"L8672c99"
50,"Sn XVII",16,34,"Tin","Se","Ar3d104s24p4","4p4","3P2","4p3 4S°3/2",0.437,0.003,"L8672c99"
50,"Sn XVIII",17,33,"Tin","As","Ar3d104s24p3","4p3","4S°3/2","4p2 3P0",0.466,0.003,"L8672c99"
50,"Sn XIX",18,32,"Tin","Ge","Ar3d104s24p2","4p2","3P0","4p 2P°1/2",0.506,0.003,"L8672c99"
50,"Sn XX",19,31,"Tin","Ga","Ar3d104s24p","4p","2P°1/2","4s2 1S0",0.537,0.004,"L8672c99"
50,"Sn XXI",20,30,"Tin","Zn","Ar3d104s2","4s2","1S0","4s 2S1/2",0.608,0.004,"L8672c99"
50,"Sn XXII",21,29,"Tin","Cu","Ar3d104s","4s","2S1/2","3d10 1S0",0.64235,0.00022,"L5953"
50,"Sn XXIII",22,28,"Tin","Ni","Ar3d10","3d10","1S0","3d9 2D5/2",1.127,0.004,"L8672c99"
50,"Sn XXIV",23,27,"Tin","Co","Ar3d9","3d9","2D5/2","3d8 3F4",1.195,0.004,"L8672c99"
50,"Sn XXV",24,26,"Tin","Fe","Ar3d8","3d8","3F4","3d7 4F9/2",1.269,0.004,"L8672c99"
50,"Sn XXVI",25,25,"Tin","Mn","Ar3d7","3d7","4F9/2","3d6 5D4",1.347,0.004,"L8672c99"
50,"Sn XXVII",26,24,"Tin","Cr","Ar3d6","3d6","5D4","3d5 6S5/2",1.421,0.004,"L8672c99"
50,"Sn XXVIII",27,23,"Tin","V","Ar3d5","3d5","6S5/2","3d4 5D0",1.508,0.004,"L8672c99"
50,"Sn XXIX",28,22,"Tin","Ti","Ar3d4","3d4","5D0","3d3 4F3/2",1.596,0.004,"L8672c99"
50,"Sn XXX",29,21,"Tin","Sc","Ar3d3","3d3","4F3/2","3d2 3F2",1.676,0.004,"L8672c99"
50,"Sn XXXI",30,20,"Tin","Ca","Ar3d2","3d2","3F2","3d 2D3/2",1.763,0.004,"L8672c99"
50,"Sn XXXII",31,19,"Tin","K","Ar3d","3d","2D3/2","3p6 1S0",1.844,0.004,"L8672c99"
50,"Sn XXXIII",32,18,"Tin","Ar","Ne3s23p6","3p6","1S0","3p5 2P°3/2",2.074,0.006,"L11770"
50,"Sn XXXIV",33,17,"Tin","Cl","Ne3s23p5","3p5","2P°3/2","3p4 3P2",2.1421,0.0021,"L11770"
50,"Sn XXXV",34,16,"Tin","S","Ne3s23p4","3p4","3P2","3p3 4S°3/2",2.227,0.003,"L11770"
50,"Sn XXXVI",35,15,"Tin","P","Ne3s23p3","3p3","4S°3/2","3p2 3P0",2.326,0.009,"L11770"
50,"Sn XXXVII",36,14,"Tin","Si","Ne3s23p2","3p2","3P0","3p 2P°1/2",2.443,0.005,"L11770"
50,"Sn XXXVIII",37,13,"Tin","Al","Ne3s23p","3p","2P°1/2","3s2 1S0",2.499,0.011,"L11770"
50,"Sn XXXIX",38,12,"Tin","Mg","Ne3s2","3s2","1S0","3s 2S1/2",2.687,0.004,"L11770"
50,"Sn XL",39,11,"Tin","Na","Ne3s","3s","2S1/2","2p6 1S0",2.76249,8e-05,"L11770"
50,"Sn XLI",40,10,"Tin","Ne","1s22s22p6","2p6","1S0","2p5 2P°3/2",6.421,0.003,"L11770"
50,"Sn XLII",41,9,"Tin","F","1s22s22p5","2p5","2P°3/2","2p4 3P2",6.631,0.01,"L11770"
50,"Sn XLIII",42,8,"Tin","O","1s22s22p4","2p4","3P2","2p21/22p3/2 0,3/2°3/2",6.859,0.013,"L11770"
50,"Sn XLIV",43,7,"Tin","N","1s22s22p3","2p21/22p3/2","0,3/2°3/2","2p2 3P0",7.08,0.05,"L11770"
50,"Sn XLV",44,6,"Tin","C","1s22s22p2","2p2","3P0","2p 2P°1/2",7.531,0.008,"L11770"
50,"Sn XLVI",45,5,"Tin","B","1s22s22p","2p","2P°1/2","2s2 1S0",7.79,0.004,"L8672c99"
50,"Sn XLVII",46,4,"Tin","Be","1s22s2","2s2","1S0","2s 2S1/2",8.103,0.007,"L11770"
50,"Sn XLVIII",47,3,"Tin","Li","1s22s","2s","2S1/2","1s2 1S0",8.30695,4e-05,"L16264c99"
50,"Sn XLIX",48,2,"Tin","He","1s2","1s2","1S0","1s 2S1/2",34.257143,1e-05,"L12128"
50,"Sn L",49,1,"Tin","H","1s","1s","2S1/2",NA,35.19239,4e-05,"L7188"
51,"Sb I",0,51,"Antimony","Sb","Cd5p3","5p3","4S°3/2","5s25p2 3P0",0.008608389,1.2e-08,"L8844,L6684"
51,"Sb II",1,50,"Antimony","Sn","Cd5p2","5s25p2","3P0","5s25p 2P1/2",0.016626,2.5e-05,"L16370,L8844"
51,"Sb III",2,49,"Antimony","In","Cd5p","5s25p","2P°1/2","5s2 1S0",0.0253235,NA,"L3466,L16241"
51,"Sb IV",3,48,"Antimony","Cd","Kr4d105s2","5s2","1S0","5s 2S1/2",0.043804,2.5e-05,"L11767"
51,"Sb V",4,47,"Antimony","Ag","Kr4d105s","4d105s","2S1/2","4d10 1S0",0.055,1e-04,"L5984"
51,"Sb VI",5,46,"Antimony","Pd","Kr4d10","4d10","1S0","4d9 2D5/2",0.09951,5e-05,"L11384"
51,"Sb VII",6,45,"Antimony","Rh","Kr4d9","4d9","2D5/2","4d8 3F4",0.117,0.002,"L8672c99"
51,"Sb VIII",7,44,"Antimony","Ru","Kr4d8","4d8","3F4","4d7 4F9/2",0.139,0.0021,"L8672c99"
51,"Sb IX",8,43,"Antimony","Tc","Kr4d7","4d7","4F9/2","4d6 5D4",0.162,0.0022,"L8672c99"
51,"Sb X",9,42,"Antimony","Mo","Kr4d6","4d6","5D4","4d5 6S5/2",0.185,0.0022,"L8672c99"
51,"Sb XI",10,41,"Antimony","Nb","Kr4d5","4d5","6S5/2","4d4 5D0",0.214,0.0024,"L8672c99"
51,"Sb XII",11,40,"Antimony","Zr","Kr4d4","4d4","5D0","4d3 4F3/2",0.238,0.0025,"L8672c99"
51,"Sb XIII",12,39,"Antimony","Y","Kr4d3","4d3","4F3/2","4d2 3F2",0.265,0.003,"L8672c99"
51,"Sb XIV",13,38,"Antimony","Sr","Kr4d2","4d2","3F2","4d 2D3/2",0.292,0.003,"L8672c99"
51,"Sb XV",14,37,"Antimony","Rb","Kr4d","4d","2D3/2","4p6 1S0",0.317,0.003,"L8672c99"
51,"Sb XVI",15,36,"Antimony","Kr","Ar3d104s24p6","4p6","1S0","4p5 2P°3/2",0.42,0.003,"L8672c99"
51,"Sb XVII",16,35,"Antimony","Br","Ar3d104s24p5","4p5","2P°3/2","4p4 3P2",0.447,0.003,"L8672c99"
51,"Sb XVIII",17,34,"Antimony","Se","Ar3d104s24p4","4p4","3P2","4p3 4S°3/2",0.479,0.003,"L8672c99"
51,"Sb XIX",18,33,"Antimony","As","Ar3d104s24p3","4p3","4S°3/2","4p2 3P0",0.51,0.003,"L8672c99"
51,"Sb XX",19,32,"Antimony","Ge","Ar3d104s24p2","4p2","3P0","4p 2P°1/2",0.552,0.004,"L8672c99"
51,"Sb XXI",20,31,"Antimony","Ga","Ar3d104s24p","4p","2P°1/2","4s2 1S0",0.584,0.004,"L8672c99"
51,"Sb XXII",21,30,"Antimony","Zn","Ar3d104s2","4s2","1S0","4s 2S1/2",0.657,0.004,"L8672c99"
51,"Sb XXIII",22,29,"Antimony","Cu","Ar3d104s","4s","2S1/2","3d10 1S0",0.69326,0.00024,"L10922"
51,"Sb XXIV",23,28,"Antimony","Ni","Ar3d10","3d10","1S0","3d9 2D5/2",1.214,0.004,"L8672c99"
51,"Sb XXV",24,27,"Antimony","Co","Ar3d9","3d9","2D5/2","3d8 3F4",1.285,0.004,"L8672c99"
51,"Sb XXVI",25,26,"Antimony","Fe","Ar3d8","3d8","3F4","3d7 4F9/2",1.36,0.004,"L8672c99"