"Z","Species","CS","Occ","Element","Iso_elec","Ground_Shells","Ground_Config","Ground_Level","Ionized_Level","IE","IE_uncertainty","References"
109,"Mt XLIII",42,67,"Meitnerium","Ho","Cd4f145p5","4f145p5","2P°3/2","4f145p4 3P2",NA,NA,NA
109,"Mt XLIV",43,66,"Meitnerium","Dy","Cd4f145p4","4f145p4","3P2","4f145p3 2P°3/2",NA,NA,NA
109,"Mt XLV",44,65,"Meitnerium","Tb","Cd4f145p3","4f145p3","2P°3/2","4f145p2 3P0",NA,NA,NA
109,"Mt XLVI",45,64,"Meitnerium","Gd","Cd4f145p2","4f145p2","3P0","4f145p 2P°1/2",NA,NA,NA
109,"Mt XLVII",46,63,"Meitnerium","Eu","Cd4f145p","4f145p","2P°1/2","4f14 1S0",NA,NA,NA
109,"Mt XLVIII",47,62,"Meitnerium","Sm","Cd4f14","4f14","1S0","4f145s 2S1/2",NA,NA,NA
109,"Mt XLIX",48,61,"Meitnerium","Pm","Kr4d104f145s","4f145s","2S1/2","4f14 1S0",NA,NA,NA
109,"Mt L",49,60,"Meitnerium","Nd","Kr4d104f14","4f14","1S0","4f13 2F°7/2",NA,NA,NA
109,"Mt LI",50,59,"Meitnerium","Pr","Kr4d104f13","4f13","2F°7/2","4f12",NA,NA,NA
109,"Mt LII",51,58,"Meitnerium","Ce","Kr4d104f12","4f12",NA,"4f11 4I°15/2",NA,NA,NA
109,"Mt LIII",52,57,"Meitnerium","La","Kr4d104f11","4f11","4I°15/2","4f10 5I8",NA,NA,NA
109,"Mt LIV",53,56,"Meitnerium","Ba","Kr4d104f10","4f10","5I8","4f9 6H°15/2",NA,NA,NA
109,"Mt LV",54,55,"Meitnerium","Cs","Kr4d104f9","4f9","6H°15/2","4f8 7F6",NA,NA,NA
109,"Mt LVI",55,54,"Meitnerium","Xe","Kr4d104f8","4f8","7F6","4f7 8S°7/2",NA,NA,NA
109,"Mt LVII",56,53,"Meitnerium","I","Kr4d104f7","4f7","8S°7/2","4f6 7F0",NA,NA,NA
109,"Mt LVIII",57,52,"Meitnerium","Te","Kr4d104f6","4f6","7F0","4f5 6H°5/2",NA,NA,NA
109,"Mt LIX",58,51,"Meitnerium","Sb","Kr4d104f5","4f5","6H°5/2","4f4 5I4",NA,NA,NA
109,"Mt LX",59,50,"Meitnerium","Sn","Kr4d104f4","4f4","5I4","4f3 4I°9/2",NA,NA,NA
109,"Mt LXI",60,49,"Meitnerium","In","Kr4d104f3","4f3","4I°9/2","4f2 3H4",NA,NA,NA
109,"Mt LXII",61,48,"Meitnerium","Cd","Kr4d104f2","4f2","3H4","4f 2F°5/2",NA,NA,NA
109,"Mt LXIII",62,47,"Meitnerium","Ag","Kr4d104f","4f","2F°5/2","4d10 1S0",NA,NA,NA
109,"Mt LXIV",63,46,"Meitnerium","Pd","Kr4d10","4d10","1S0","4d9 2D5/2",4.464,0.019,"L8672c99"
109,"Mt LXV",64,45,"Meitnerium","Rh","Kr4d9","4d9","2D5/2","4d8 3F4",4.551,0.024,"L8672c99"
109,"Mt LXVI",65,44,"Meitnerium","Ru","Kr4d8","4d8","3F4","4d7 4F9/2",4.64,0.03,"L8672c99"
109,"Mt LXVII",66,43,"Meitnerium","Tc","Kr4d7","4d7","4F9/2","4d6 5D4",4.74,0.04,"L8672c99"
109,"Mt LXVIII",67,42,"Meitnerium","Mo","Kr4d6","4d6","5D4","4d5 5/2",4.83,0.04,"L8672c99"
109,"Mt LXIX",68,41,"Meitnerium","Nb","Kr4d5","4d5","5/2","4d4 5D0",4.92,0.05,"L8672c99"
109,"Mt LXX",69,40,"Meitnerium","Zr","Kr4d4","4d4","5D0","4d3 4F3/2",5.16,0.05,"L8672c99"
109,"Mt LXXI",70,39,"Meitnerium","Y","Kr4d3","4d3","4F3/2","4d2 3F2",5.25,0.06,"L8672c99"
109,"Mt LXXII",71,38,"Meitnerium","Sr","Kr4d2","4d2","3F2","4d 2D3/2",5.36,0.06,"L8672c99"
109,"Mt LXXIII",72,37,"Meitnerium","Rb","Kr4d","4d","2D3/2","4p6 1S0",5.45,0.07,"L8672c99"
109,"Mt LXXIV",73,36,"Meitnerium","Kr","Ar3d104s24p6","4p6","1S0","4p5 2P°3/2",5.84,0.09,"L8672c99"
109,"Mt LXXV",74,35,"Meitnerium","Br","Ar3d104s24p5","4p5","2P°3/2","4p4 3P2",5.93,0.09,"L8672c99"
109,"Mt LXXVI",75,34,"Meitnerium","Se","Ar3d104s24p4","4p4","3P2","4p3°3/2",6.03,0.1,"L8672c99"
109,"Mt LXXVII",76,33,"Meitnerium","As","Ar3d104s24p3","4p3","°3/2","4p2 3P0",6.13,0.11,"L8672c99"
109,"Mt LXXVIII",77,32,"Meitnerium","Ge","Ar3d104s24p2","4p2","3P0","4p 2P°1/2",7.03,0.12,"L8672c99"
109,"Mt LXXIX",78,31,"Meitnerium","Ga","Ar3d104s24p","4p","2P°1/2","4s2 1S0",7.15,0.12,"L8672c99"
109,"Mt LXXX",79,30,"Meitnerium","Zn","Ar3d104s2","4s2","1S0","4s 2S1/2",7.43,0.14,"L8672c99"
109,"Mt LXXXI",80,29,"Meitnerium","Cu","Ar3d104s","4s","2S1/2","3d10 1S0",7.55,0.15,"L8672c99"
109,"Mt LXXXII",81,28,"Meitnerium","Ni","Ar3d10","3d10","1S0","3d9 2D5/2",11.46,0.16,"L8672c99"
109,"Mt LXXXIII",82,27,"Meitnerium","Co","Ar3d9","3d9","2D5/2","3d8 3F4",11.66,0.17,"L8672c99"
109,"Mt LXXXIV",83,26,"Meitnerium","Fe","Ar3d8","3d8","3F4","3d7 4F9/2",11.87,0.19,"L8672c99"
109,"Mt LXXXV",84,25,"Meitnerium","Mn","Ar3d7","3d7","4F9/2","3d6 4",12.1,0.2,"L8672c99"
109,"Mt LXXXVI",85,24,"Meitnerium","Cr","Ar3d6","3d6","4","3d5 5/2",12.32,0.22,"L8672c99"
109,"Mt LXXXVII",86,23,"Meitnerium","V","Ar3d5","3d5","5/2","3d4 5D0",12.53,0.24,"L8672c99"
109,"Mt LXXXVIII",87,22,"Meitnerium","Ti","Ar3d4","3d4","5D0","3d3 4F3/2",13.2,0.25,"L8672c99"
109,"Mt LXXXIX",88,21,"Meitnerium","Sc","Ar3d3","3d3","4F3/2","3d2 3F2",13.4,0.3,"L8672c99"
109,"Mt XC",89,20,"Meitnerium","Ca","Ar3d2","3d2","3F2","3d 2D3/2",13.7,0.3,"L8672c99"
109,"Mt XCI",90,19,"Meitnerium","K","Ar3d","3d","2D3/2","3p6 1S0",13.9,0.3,"L8672c99"
109,"Mt XCII",91,18,"Meitnerium","Ar","Ne3s23p6","3p6","1S0","3p5 2P°3/2",14.5,0.3,"L8672c99"
109,"Mt XCIII",92,17,"Meitnerium","Cl","Ne3s23p5","3p5","2P°3/2","3p4 3P2",14.7,0.4,"L8672c99"
109,"Mt XCIV",93,16,"Meitnerium","S","Ne3s23p4","3p4","3P2","3p3 2P°3/2",14.9,0.4,"L8672c99"
109,"Mt XCV",94,15,"Meitnerium","P","Ne3s23p3","3p3","2P°3/2","3p2 3P0",15.1,0.4,"L8672c99"
109,"Mt XCVI",95,14,"Meitnerium","Si","Ne3s23p2","3p2","3P0","3p 2P°1/2",17.9,0.4,"L8672c99"
109,"Mt XCVII",96,13,"Meitnerium","Al","Ne3s23p","3p","2P°1/2","3s2 1S0",18.2,0.4,"L8672c99"
109,"Mt XCVIII",97,12,"Meitnerium","Mg","Ne3s2","3s2","1S0","3s 2S1/2",18.7,0.4,"L8672c99"
109,"Mt XCIX",98,11,"Meitnerium","Na","Ne3s","3s","2S1/2","2p6 1S0",18.9,0.5,"L8672c99"
109,"Mt C",99,10,"Meitnerium","Ne","1s22s22p6","2p6","1S0","2p5 2P°3/2",36.7,0.5,"L8672c99"
109,"Mt CI",100,9,"Meitnerium","F","1s22s22p5","2p5","2P°3/2","2p4 3P2",37.2,0.5,"L8672c99"
109,"Mt CII",101,8,"Meitnerium","O","1s22s22p4","2p4","3P2","2p21/22p3/2 0,3/2°3/2",37.8,0.5,"L8672c99"
109,"Mt CIII",102,7,"Meitnerium","N","1s22s22p3","2p21/22p3/2","0,3/2°3/2","2p2 3P0",38.3,0.5,"L8672c99"
109,"Mt CIV",103,6,"Meitnerium","C","1s22s22p2","2p2","3P0","2p 2P°1/2",48.5,0.5,"L8672c99"
109,"Mt CV",104,5,"Meitnerium","B","1s22s22p","2p","2P°1/2","2s2 1S0",49.4,0.6,"L8672c99"
109,"Mt CVI",105,4,"Meitnerium","Be","1s22s2","2s2","1S0","2s 2S1/2",50.3,0.6,"L8672c99"
109,"Mt CVII",106,3,"Meitnerium","Li","1s22s","2s","2S1/2","1s2 1S0",NA,NA,NA
109,"Mt CVIII",107,2,"Meitnerium","He","1s2","1s2","1S0","1s 2S1/2",NA,NA,NA
109,"Mt CIX",108,1,"Meitnerium","H","1s","1s","2S1/2",NA,199.606,0.014,"L7188"
110,"Ds VI",5,105,"Darmstadtium","Db","Rn5f146d5","6d5","5/2","6d4 0",0.065,0.002,"L8672c99"
110,"Ds VII",6,104,"Darmstadtium","Rf","Rn5f146d4","6d4","0","6d3 3/2",NA,NA,NA
110,"Ds VIII",7,103,"Darmstadtium","Lr","Rn5f146d3","6d27s","3/2","6d2 2",NA,NA,NA
110,"Ds IX",8,102,"Darmstadtium","No","Rn5f146d2","6d2","2","5f146d 2D3/2",0.1129,0.0022,"L8672c99"
110,"Ds X",9,101,"Darmstadtium","Md","Rn5f146d","5f146d","2D3/2","5f14 1S0",0.128,0.0022,"L8672c99"
110,"Ds XI",10,100,"Darmstadtium","Fm","Rn5f14","5f14","1S0","5f13 2F°7/2",0.216,0.0024,"L8672c99"
110,"Ds XII",11,99,"Darmstadtium","Es","Rn5f13","5f13","2F°7/2","5f12 3H6",0.231,0.0025,"L8672c99"
110,"Ds XIII",12,98,"Darmstadtium","Cf","Rn5f12","5f12","3H6","5f11 4I°15/2",0.266,0.003,"L8672c99"
110,"Ds XIV",13,97,"Darmstadtium","Bk","Rn5f11","5f11","4I°15/2","5f10 5I8",0.288,0.003,"L8672c99"
110,"Ds XV",14,96,"Darmstadtium","Cm","Rn5f10","5f10","5I8","5f9 6H°15/2",0.322,0.003,"L8672c99"
110,"Ds XVI",15,95,"Darmstadtium","Am","Rn5f9","5f9","6H°15/2","5f8 7F6",0.352,0.003,"L8672c99"
110,"Ds XVII",16,94,"Darmstadtium","Pu","Rn5f8","5f8","7F6","5f7 8S°7/2",0.38,0.003,"L8672c99"
110,"Ds XVIII",17,93,"Darmstadtium","Np","Rn5f7","5f7","8S°7/2","5f6 7F0",0.422,0.003,"L8672c99"
110,"Ds XIX",18,92,"Darmstadtium","U","Rn5f6","5f6","7F0","5f5 6H°5/2",0.442,0.003,"L8672c99"
110,"Ds XX",19,91,"Darmstadtium","Pa","Rn5f5","5f5","6H°5/2","5f4 5I4",0.483,0.004,"L8672c99"
110,"Ds XXI",20,90,"Darmstadtium","Th","Rn5f4","5f4","5I4",NA,NA,NA,NA
110,"Ds XXXIII",32,78,"Darmstadtium","Pt","Xe4f145d10","5d10","1S0","5d9 2D5/2",1.087,0.004,"L8672c99"
110,"Ds XXXIV",33,77,"Darmstadtium","Ir","Xe4f145d9","5d9","2D5/2","5d8 3F4",1.125,0.005,"L8672c99"
110,"Ds XXXV",34,76,"Darmstadtium","Os","Xe4f145d8","5d8","3F4","5d7 4F9/2",1.165,0.005,"L8672c99"
110,"Ds XXXVI",35,75,"Darmstadtium","Re","Xe4f145d7","5d7","4F9/2","5d6 5D4",1.208,0.005,"L8672c98,c99"
110,"Ds XXXVII",36,74,"Darmstadtium","W","Xe4f145d6","5d6","5D4","5d5 6S5/2",1.25,0.005,"L8672c98,c99"
110,"Ds XXXVIII",37,73,"Darmstadtium","Ta","Xe4f145d5","5d5","6S5/2","5d4 5D0",1.29,0.004,"L8672c99"
110,"Ds XXXIX",38,72,"Darmstadtium","Hf","Xe4f145d4","5d4","5D0","5d3 4F3/2",1.369,0.004,"L8672c99"
110,"Ds XL",39,71,"Darmstadtium","Lu","Xe4f145d3","5d3","4F3/2","5d2 3F2",1.412,0.004,"L8672c99"
110,"Ds XLI",40,70,"Darmstadtium","Yb","Xe4f145d2","5d2","3F2","5d 2D3/2",1.457,0.004,"L8672c99"
110,"Ds XLII",41,69,"Darmstadtium","Tm","Xe4f145d","5d","2D3/2","4f14 1S0",1.5,0.004,"L8672c99"
110,"Ds XLIII",42,68,"Darmstadtium","Er","Xe4f14","4f14","1S0","4f145p5 2P°3/2",NA,NA,NA
110,"Ds XLIV",43,67,"Darmstadtium","Ho","Cd4f145p5","4f145p5","2P°3/2","4f145p4 3P2",NA,NA,NA
110,"Ds XLV",44,66,"Darmstadtium","Dy","Cd4f145p4","4f145p4","3P2","4f145p3 2P°3/2",NA,NA,NA
110,"Ds XLVI",45,65,"Darmstadtium","Tb","Cd4f145p3","4f145p3","2P°3/2","4f145p2 3P0",NA,NA,NA
110,"Ds XLVII",46,64,"Darmstadtium","Gd","Cd4f145p2","4f145p2","3P0","4f145p 2P°1/2",NA,NA,NA
110,"Ds XLVIII",47,63,"Darmstadtium","Eu","Cd4f145p","4f145p","2P°1/2","4f14 1S0",NA,NA,NA
110,"Ds XLIX",48,62,"Darmstadtium","Sm","Cd4f14","4f14","1S0","4f145s 2S1/2",NA,NA,NA
110,"Ds L",49,61,"Darmstadtium","Pm","Kr4d104f145s","4f145s","2S1/2","4f14 1S0",NA,NA,NA
110,"Ds LI",50,60,"Darmstadtium","Nd","Kr4d104f14","4f14","1S0","4f13 2F°7/2",NA,NA,NA
110,"Ds LII",51,59,"Darmstadtium","Pr","Kr4d104f13","4f13","2F°7/2","4f12",NA,NA,NA
110,"Ds LIII",52,58,"Darmstadtium","Ce","Kr4d104f12","4f12",NA,"4f11 4I°15/2",NA,NA,NA
110,"Ds LIV",53,57,"Darmstadtium","La","Kr4d104f11","4f11","4I°15/2","4f10 5I8",NA,NA,NA
110,"Ds LV",54,56,"Darmstadtium","Ba","Kr4d104f10","4f10","5I8","4f9 6H°15/2",NA,NA,NA
110,"Ds LVI",55,55,"Darmstadtium","Cs","Kr4d104f9","4f9","6H°15/2","4f8 7F6",NA,NA,NA
110,"Ds LVII",56,54,"Darmstadtium","Xe","Kr4d104f8","4f8","7F6","4f7 8S°7/2",NA,NA,NA
110,"Ds LVIII",57,53,"Darmstadtium","I","Kr4d104f7","4f7","8S°7/2","4f6 7F0",NA,NA,NA
110,"Ds LIX",58,52,"Darmstadtium","Te","Kr4d104f6","4f6","7F0","4f5 6H°5/2",NA,NA,NA
110,"Ds LX",59,51,"Darmstadtium","Sb","Kr4d104f5","4f5","6H°5/2","4f4 5I4",NA,NA,NA
110,"Ds LXI",60,50,"Darmstadtium","Sn","Kr4d104f4","4f4","5I4","4f3 4I°9/2",NA,NA,NA
110,"Ds LXII",61,49,"Darmstadtium","In","Kr4d104f3","4f3","4I°9/2","4f2 3H4",NA,NA,NA
110,"Ds LXIII",62,48,"Darmstadtium","Cd","Kr4d104f2","4f2","3H4","4f 2F°5/2",NA,NA,NA
110,"Ds LXIV",63,47,"Darmstadtium","Ag","Kr4d104f","4f","2F°5/2","4d10 1S0",NA,NA,NA
110,"Ds LXV",64,46,"Darmstadtium","Pd","Kr4d10","4d10","1S0","4d9 2D5/2",4.59,0.024,"L8672c99"
110,"Ds LXVI",65,45,"Darmstadtium","Rh","Kr4d9","4d9","2D5/2","4d8 3F4",4.68,0.03,"L8672c99"
110,"Ds LXVII",66,44,"Darmstadtium","Ru","Kr4d8","4d8","3F4","4d7 4F9/2",4.77,0.04,"L8672c99"
110,"Ds LXVIII",67,43,"Darmstadtium","Tc","Kr4d7","4d7","4F9/2","4d6 5D4",4.87,0.04,"L8672c99"
110,"Ds LXIX",68,42,"Darmstadtium","Mo","Kr4d6","4d6","5D4","4d5 5/2",4.96,0.05,"L8672c99"
110,"Ds LXX",69,41,"Darmstadtium","Nb","Kr4d5","4d5","5/2","4d4 5D0",5.06,0.05,"L8672c99"
110,"Ds LXXI",70,40,"Darmstadtium","Zr","Kr4d4","4d4","5D0","4d3 4F3/2",5.3,0.06,"L8672c99"
110,"Ds LXXII",71,39,"Darmstadtium","Y","Kr4d3","4d3","4F3/2","4d2 3F2",5.4,0.06,"L8672c99"
110,"Ds LXXIII",72,38,"Darmstadtium","Sr","Kr4d2","4d2","3F2","4d 2D3/2",5.5,0.07,"L8672c99"
110,"Ds LXXIV",73,37,"Darmstadtium","Rb","Kr4d","4d","2D3/2","4p6 1S0",5.6,0.09,"L8672c99"
110,"Ds LXXV",74,36,"Darmstadtium","Kr","Ar3d104s24p6","4p6","1S0","4p5 2P°3/2",5.99,0.09,"L8672c99"
110,"Ds LXXVI",75,35,"Darmstadtium","Br","Ar3d104s24p5","4p5","2P°3/2","4p4 3P2",6.08,0.1,"L8672c99"
110,"Ds LXXVII",76,34,"Darmstadtium","Se","Ar3d104s24p4","4p4","3P2","4p3°3/2",6.19,0.11,"L8672c99"
110,"Ds LXXVIII",77,33,"Darmstadtium","As","Ar3d104s24p3","4p3","°3/2","4p2 3P0",6.28,0.12,"L8672c99"
110,"Ds LXXIX",78,32,"Darmstadtium","Ge","Ar3d104s24p2","4p2","3P0","4p 2P°1/2",7.23,0.12,"L8672c99"
110,"Ds LXXX",79,31,"Darmstadtium","Ga","Ar3d104s24p","4p","2P°1/2","4s2 1S0",7.35,0.14,"L8672c99"
110,"Ds LXXXI",80,30,"Darmstadtium","Zn","Ar3d104s2","4s2","1S0","4s 2S1/2",7.64,0.15,"L8672c99"
110,"Ds LXXXII",81,29,"Darmstadtium","Cu","Ar3d104s","4s","2S1/2","3d10 1S0",7.75,0.16,"L8672c99"
110,"Ds LXXXIII",82,28,"Darmstadtium","Ni","Ar3d10","3d10","1S0","3d9 2D5/2",11.73,0.17,"L8672c99"
110,"Ds LXXXIV",83,27,"Darmstadtium","Co","Ar3d9","3d9","2D5/2","3d8 3F4",11.93,0.19,"L8672c99"
110,"Ds LXXXV",84,26,"Darmstadtium","Fe","Ar3d8","3d8","3F4","3d7 4F9/2",12.14,0.2,"L8672c99"
110,"Ds LXXXVI",85,25,"Darmstadtium","Mn","Ar3d7","3d7","4F9/2","3d6 4",12.38,0.22,"L8672c99"
110,"Ds LXXXVII",86,24,"Darmstadtium","Cr","Ar3d6","3d6","4","3d5 5/2",12.6,0.24,"L8672c99"
110,"Ds LXXXVIII",87,23,"Darmstadtium","V","Ar3d5","3d5","5/2","3d4 5D0",12.81,0.25,"L8672c99"
110,"Ds LXXXIX",88,22,"Darmstadtium","Ti","Ar3d4","3d4","5D0","3d3 4F3/2",13.5,0.3,"L8672c99"
110,"Ds XC",89,21,"Darmstadtium","Sc","Ar3d3","3d3","4F3/2","3d2 3F2",13.7,0.3,"L8672c99"
110,"Ds XCI",90,20,"Darmstadtium","Ca","Ar3d2","3d2","3F2","3d 2D3/2",14,0.3,"L8672c99"
110,"Ds XCII",91,19,"Darmstadtium","K","Ar3d","3d","2D3/2","3p6 1S0",14.2,0.3,"L8672c99"
110,"Ds XCIII",92,18,"Darmstadtium","Ar","Ne3s23p6","3p6","1S0","3p5 2P°3/2",14.8,0.4,"L8672c99"
110,"Ds XCIV",93,17,"Darmstadtium","Cl","Ne3s23p5","3p5","2P°3/2","3p4 3P2",15,0.4,"L8672c99"
110,"Ds XCV",94,16,"Darmstadtium","S","Ne3s23p4","3p4","3P2","3p3 2P°3/2",15.3,0.4,"L8672c99"
110,"Ds XCVI",95,15,"Darmstadtium","P","Ne3s23p3","3p3","2P°3/2","3p2 3P0",15.5,0.4,"L8672c99"
110,"Ds XCVII",96,14,"Darmstadtium","Si","Ne3s23p2","3p2","3P0","3p 2P°1/2",18.4,0.4,"L8672c99"
110,"Ds XCVIII",97,13,"Darmstadtium","Al","Ne3s23p","3p","2P°1/2","3s2 1S0",18.6,0.4,"L8672c99"
110,"Ds XCIX",98,12,"Darmstadtium","Mg","Ne3s2","3s2","1S0","3s 2S1/2",19.1,0.5,"L8672c99"
110,"Ds C",99,11,"Darmstadtium","Na","Ne3s","3s","2S1/2","2p6 1S0",19.4,0.5,"L8672c99"
110,"Ds CI",100,10,"Darmstadtium","Ne","1s22s22p6","2p6","1S0","2p5 2P°3/2",37.4,0.5,"L8672c99"
110,"Ds CII",101,9,"Darmstadtium","F","1s22s22p5","2p5","2P°3/2","2p4 3P2",37.9,0.5,"L8672c99"
110,"Ds CIII",102,8,"Darmstadtium","O","1s22s22p4","2p4","3P2","2p21/22p3/2 0,3/2°3/2",38.5,0.5,"L8672c99"
110,"Ds CIV",103,7,"Darmstadtium","N","1s22s22p3","2p21/22p3/2","0,3/2°3/2","2p2 3P0",39.1,0.5,"L8672c99"
110,"Ds CV",104,6,"Darmstadtium","C","1s22s22p2","2p2","3P0","2p 2P°1/2",49.8,0.6,"L8672c99"
110,"Ds CVI",105,5,"Darmstadtium","B","1s22s22p","2p","2P°1/2","2s2 1S0",50.7,0.6,"L8672c99"
110,"Ds CVII",106,4,"Darmstadtium","Be","1s22s2","2s2","1S0","2s 2S1/2",51.6,0.6,"L8672c99"
110,"Ds CVIII",107,3,"Darmstadtium","Li","1s22s","2s","2S1/2","1s2 1S0",NA,NA,NA
110,"Ds CIX",108,2,"Darmstadtium","He","1s2","1s2","1S0","1s 2S1/2",NA,NA,NA
110,"Ds CX",109,1,"Darmstadtium","H","1s","1s","2S1/2",NA,204.4,0.015,"L7188"