"Z","Species","CS","Occ","Element","Iso_elec","Ground_Shells","Ground_Config","Ground_Level","Ionized_Level","IE","IE_uncertainty","References"
100,"Fm XLI",40,60,"Fermium","Nd","Kr4d104f14","4f14","1S0","4f13 2F°7/2",1.77,0.09,"L582"
100,"Fm XLII",41,59,"Fermium","Pr","Kr4d104f13","4f13","2F°7/2","4f12",1.85,0.09,"L582"
100,"Fm XLIII",42,58,"Fermium","Ce","Kr4d104f12","4f12",NA,"4f11 4I°15/2",1.94,0.1,"L582"
100,"Fm XLIV",43,57,"Fermium","La","Kr4d104f11","4f11","4I°15/2","4f10 5I8",2.03,0.1,"L582"
100,"Fm XLV",44,56,"Fermium","Ba","Kr4d104f10","4f10","5I8","4f9 6H°15/2",2.12,0.11,"L582"
100,"Fm XLVI",45,55,"Fermium","Cs","Kr4d104f9","4f9","6H°15/2","4f8 7F6",2.21,0.11,"L582"
100,"Fm XLVII",46,54,"Fermium","Xe","Kr4d104f8","4f8","7F6","4f7 8S°7/2",2.3,0.12,"L582"
100,"Fm XLVIII",47,53,"Fermium","I","Kr4d104f7","4f7","8S°7/2","4f6 7F0",2.39,0.12,"L582"
100,"Fm XLIX",48,52,"Fermium","Te","Kr4d104f6","4f6","7F0","4f5 6H°5/2",2.49,0.12,"L582"
100,"Fm L",49,51,"Fermium","Sb","Kr4d104f5","4f5","6H°5/2","4f4 5I4",2.59,0.12,"L582"
100,"Fm LI",50,50,"Fermium","Sn","Kr4d104f4","4f4","5I4","4f3 4I°9/2",2.68,0.14,"L582"
100,"Fm LII",51,49,"Fermium","In","Kr4d104f3","4f3","4I°9/2","4f2 3H4",2.76,0.14,"L582"
100,"Fm LIII",52,48,"Fermium","Cd","Kr4d104f2","4f2","3H4","4f 2F°5/2",2.85,0.15,"L582"
100,"Fm LIV",53,47,"Fermium","Ag","Kr4d104f","4f","2F°5/2","4d10 1S0",2.95,0.15,"L582"
100,"Fm LV",54,46,"Fermium","Pd","Kr4d10","4d10","1S0","4d9 2D5/2",3.403,0.005,"L8672c99"
100,"Fm LVI",55,45,"Fermium","Rh","Kr4d9","4d9","2D5/2","4d8 3F4",3.48,0.005,"L8672c99"
100,"Fm LVII",56,44,"Fermium","Ru","Kr4d8","4d8","3F4","4d7 4F9/2",3.561,0.005,"L8672c99"
100,"Fm LVIII",57,43,"Fermium","Tc","Kr4d7","4d7","4F9/2","4d6 5D4",3.647,0.006,"L8672c99"
100,"Fm LIX",58,42,"Fermium","Mo","Kr4d6","4d6","5D4","4d5 5/2",3.73,0.006,"L8672c99"
100,"Fm LX",59,41,"Fermium","Nb","Kr4d5","4d5","5/2","4d4 5D0",3.81,0.007,"L8672c99"
100,"Fm LXI",60,40,"Fermium","Zr","Kr4d4","4d4","5D0","4d3 4F3/2",3.986,0.01,"L8672c99"
100,"Fm LXII",61,39,"Fermium","Y","Kr4d3","4d3","4F3/2","4d2 3F2",4.07,0.012,"L8672c99"
100,"Fm LXIII",62,38,"Fermium","Sr","Kr4d2","4d2","3F2","4d 2D3/2",4.16,0.015,"L8672c99"
100,"Fm LXIV",63,37,"Fermium","Rb","Kr4d","4d","2D3/2","4p6 1S0",4.245,0.019,"L8672c99"
100,"Fm LXV",64,36,"Fermium","Kr","Ar3d104s24p6","4p6","1S0","4p5 2P°3/2",4.586,0.024,"L8672c99"
100,"Fm LXVI",65,35,"Fermium","Br","Ar3d104s24p5","4p5","2P°3/2","4p4 3P2",4.67,0.03,"L8672c99"
100,"Fm LXVII",66,34,"Fermium","Se","Ar3d104s24p4","4p4","3P2","4p3°3/2",4.76,0.04,"L8672c99"
100,"Fm LXVIII",67,33,"Fermium","As","Ar3d104s24p3","4p3","°3/2","4p2 3P0",4.84,0.04,"L8672c99"
100,"Fm LXIX",68,32,"Fermium","Ge","Ar3d104s24p2","4p2","3P0","4p 2P°1/2",5.42,0.05,"L8672c99"
100,"Fm LXX",69,31,"Fermium","Ga","Ar3d104s24p","4p","2P°1/2","4s2 1S0",5.51,0.05,"L8672c99"
100,"Fm LXXI",70,30,"Fermium","Zn","Ar3d104s2","4s2","1S0","4s 2S1/2",5.76,0.06,"L8672c99"
100,"Fm LXXII",71,29,"Fermium","Cu","Ar3d104s","4s","2S1/2","3d10 1S0",5.86,0.06,"L8672c99"
100,"Fm LXXIII",72,28,"Fermium","Ni","Ar3d10","3d10","1S0","3d9 2D5/2",9.2,0.07,"L8672c99"
100,"Fm LXXIV",73,27,"Fermium","Co","Ar3d9","3d9","2D5/2","3d8 3F4",9.37,0.09,"L8672c99"
100,"Fm LXXV",74,26,"Fermium","Fe","Ar3d8","3d8","3F4","3d7 4F9/2",9.57,0.09,"L8672c99"
100,"Fm LXXVI",75,25,"Fermium","Mn","Ar3d7","3d7","4F9/2","3d6 4",9.77,0.1,"L8672c99"
100,"Fm LXXVII",76,24,"Fermium","Cr","Ar3d6","3d6","4","3d5 5/2",9.97,0.11,"L8672c99"
100,"Fm LXXVIII",77,23,"Fermium","V","Ar3d5","3d5","5/2","3d4 5D0",10.16,0.12,"L8672c99"
100,"Fm LXXIX",78,22,"Fermium","Ti","Ar3d4","3d4","5D0","3d3 4F3/2",10.66,0.12,"L8672c99"
100,"Fm LXXX",79,21,"Fermium","Sc","Ar3d3","3d3","4F3/2","3d2 3F2",10.86,0.14,"L8672c99"
100,"Fm LXXXI",80,20,"Fermium","Ca","Ar3d2","3d2","3F2","3d 2D3/2",11.08,0.15,"L8672c99"
100,"Fm LXXXII",81,19,"Fermium","K","Ar3d","3d","2D3/2","3p6 1S0",11.28,0.16,"L8672c99"
100,"Fm LXXXIII",82,18,"Fermium","Ar","Ne3s23p6","3p6","1S0","3p5 2P°3/2",11.85,0.17,"L8672c99"
100,"Fm LXXXIV",83,17,"Fermium","Cl","Ne3s23p5","3p5","2P°3/2","3p4 3P2",12.02,0.19,"L8672c99"
100,"Fm LXXXV",84,16,"Fermium","S","Ne3s23p4","3p4","3P2","3p3 2P°3/2",12.22,0.2,"L8672c99"
100,"Fm LXXXVI",85,15,"Fermium","P","Ne3s23p3","3p3","2P°3/2","3p2 3P0",12.39,0.22,"L8672c99"
100,"Fm LXXXVII",86,14,"Fermium","Si","Ne3s23p2","3p2","3P0","3p 2P°1/2",14.18,0.24,"L8672c99"
100,"Fm LXXXVIII",87,13,"Fermium","Al","Ne3s23p","3p","2P°1/2","3s2 1S0",14.4,0.25,"L8672c99"
100,"Fm LXXXIX",88,12,"Fermium","Mg","Ne3s2","3s2","1S0","3s 2S1/2",14.8,0.3,"L8672c99"
100,"Fm XC",89,11,"Fermium","Na","Ne3s","3s","2S1/2","2p6 1S0",15,0.3,"L8672c99"
100,"Fm XCI",90,10,"Fermium","Ne","1s22s22p6","2p6","1S0","2p5 2P°3/2",30.3,0.3,"L8672c99"
100,"Fm XCII",91,9,"Fermium","F","1s22s22p5","2p5","2P°3/2","2p4 3P2",30.8,0.3,"L8672c99"
100,"Fm XCIII",92,8,"Fermium","O","1s22s22p4","2p4","3P2","2p21/22p3/2 0,3/2°3/2",31.3,0.4,"L8672c99"
100,"Fm XCIV",93,7,"Fermium","N","1s22s22p3","2p21/22p3/2","0,3/2°3/2","2p2 3P0",31.8,0.4,"L8672c99"
100,"Fm XCV",94,6,"Fermium","C","1s22s22p2","2p2","3P0","2p 2P°1/2",38.4,0.4,"L8672c99"
100,"Fm XCVI",95,5,"Fermium","B","1s22s22p","2p","2P°1/2","2s2 1S0",39.1,0.4,"L8672c99"
100,"Fm XCVII",96,4,"Fermium","Be","1s22s2","2s2","1S0","2s 2S1/2",40,0.4,"L8672c99"
100,"Fm XCVIII",97,3,"Fermium","Li","1s22s","2s","2S1/2","1s2 1S0",40.4822,0.0011,"L16264c99"
100,"Fm XCIX",98,2,"Fermium","He","1s2","1s2","1S0","1s 2S1/2",158.1525,0.0015,"L10054"
100,"Fm C",99,1,"Fermium","H","1s","1s","2S1/2",NA,160.804,0.006,"L7188"
101,"Md I",0,101,"Mendelevium","Md","Rn5f137s2","5f137s2","2F°7/2","5f137s 3F°4",0.00658,7e-05,"L16359"
101,"Md II",1,100,"Mendelevium","Fm","Rn5f137s","5f137s","3F°4","5f13 2F°7/2",0.0124,4e-04,"L13741c99"
101,"Md III",2,99,"Mendelevium","Es","Rn5f13","5f13","2F°7/2","5f12 3H6",0.0243,4e-04,"L13741c99"
101,"Md IV",3,98,"Mendelevium","Cf","Rn5f12","5f12","3H6","5f11 4I°15/2",0.04,4e-04,"L13741c99"
101,"Md V",4,97,"Mendelevium","Bk","Rn5f11","5f11","4I°15/2","5f10 5I8",0.0541,0.0019,"L8672c99"
101,"Md VI",5,96,"Mendelevium","Cm","Rn5f10","5f10","5I8","5f9 6H°15/2",0.076,0.002,"L8672c99"
101,"Md VII",6,95,"Mendelevium","Am","Rn5f9","5f9","6H°15/2","5f8 7F6",0.096,0.002,"L8672c99"
101,"Md VIII",7,94,"Mendelevium","Pu","Rn5f8","5f8","7F6","5f7 8S°7/2",0.1151,0.0021,"L8672c99"
101,"Md IX",8,93,"Mendelevium","Np","Rn5f7","5f7","8S°7/2","5f6 7F0",0.1439,0.0022,"L8672c99"
101,"Md X",9,92,"Mendelevium","U","Rn5f6","5f6","7F0","5f5 6H°5/2",0.162,0.0022,"L8672c99"
101,"Md XI",10,91,"Mendelevium","Pa","Rn5f5","5f5","6H°5/2","5f4 5I4",0.187,0.0024,"L8672c99"
101,"Md XII",11,90,"Mendelevium","Th","Rn5f4","5f4","5I4","5f76p2",0.215,0.011,"L582"
101,"Md XIII",12,89,"Mendelevium","Ac","Hg5f76p2","5f76p2","°","5f66p2",0.24,0.012,"L582"
101,"Md XIV",13,88,"Mendelevium","Ra","Hg5f66p2","5f66p2",NA,"5f66p°",0.26,0.012,"L582"
101,"Md XV",14,87,"Mendelevium","Fr","Hg5f66p","5f66p","°","5f6",0.282,0.014,"L582"
101,"Md XVI",15,86,"Mendelevium","Rn","Hg5f6","5f6",NA,"5f5°",0.307,0.015,"L582"
101,"Md XVII",16,85,"Mendelevium","At","Hg5f5","5f5","°","5f4",0.334,0.016,"L582"
101,"Md XVIII",17,84,"Mendelevium","Po","Hg5f4","5f4",NA,"5f3°",0.36,0.017,"L582"
101,"Md XIX",18,83,"Mendelevium","Bi","Hg5f3","5f3","°","5f2",0.386,0.02,"L582"
101,"Md XX",19,82,"Mendelevium","Pb","Hg5f2","5f2",NA,"5f 2F°5/2",0.412,0.021,"L582"
101,"Md XXI",20,81,"Mendelevium","Tl","Hg5f","5f","2F°5/2","6s2 1S0",0.438,0.022,"L582"
101,"Md XXII",21,80,"Mendelevium","Hg","Xe4f145d106s2","6s2","1S0","6s 2S1/2",0.462,0.004,"L8672c99"
101,"Md XXIII",22,79,"Mendelevium","Au","Xe4f145d106s","6s","2S1/2","5d10 1S0",0.486,0.004,"L8672c99"
101,"Md XXIV",23,78,"Mendelevium","Pt","Xe4f145d10","5d10","1S0","5d9 2D5/2",0.659,0.004,"L8672c99"
101,"Md XXV",24,77,"Mendelevium","Ir","Xe4f145d9","5d9","2D5/2","5d8 3F4",0.69,0.004,"L8672c99"
101,"Md XXVI",25,76,"Mendelevium","Os","Xe4f145d8","5d8","3F4","5d7 4F9/2",0.723,0.004,"L8672c99"
101,"Md XXVII",26,75,"Mendelevium","Re","Xe4f145d7","5d7","4F9/2","5d6 5D4",0.76,0.004,"L8672c99"
101,"Md XXVIII",27,74,"Mendelevium","W","Xe4f145d6","5d6","5D4","5d5 6S5/2",0.794,0.004,"L8672c99"
101,"Md XXIX",28,73,"Mendelevium","Ta","Xe4f145d5","5d5","6S5/2","5d4 5D0",0.828,0.004,"L8672c99"
101,"Md XXX",29,72,"Mendelevium","Hf","Xe4f145d4","5d4","5D0","5d3 4F3/2",0.885,0.004,"L8672c99"
101,"Md XXXI",30,71,"Mendelevium","Lu","Xe4f145d3","5d3","4F3/2","5d2 3F2",0.92,0.004,"L8672c99"
101,"Md XXXII",31,70,"Mendelevium","Yb","Xe4f145d2","5d2","3F2","5d 2D3/2",0.958,0.004,"L8672c99"
101,"Md XXXIII",32,69,"Mendelevium","Tm","Xe4f145d","5d","2D3/2","4f14 1S0",0.994,0.004,"L8672c99"
101,"Md XXXIV",33,68,"Mendelevium","Er","Xe4f14","4f14","1S0","4f145p5 2P°3/2",1.16,0.06,"L582"
101,"Md XXXV",34,67,"Mendelevium","Ho","Cd4f145p5","4f145p5","2P°3/2","4f145p4 3P2",1.21,0.06,"L582"
101,"Md XXXVI",35,66,"Mendelevium","Dy","Cd4f145p4","4f145p4","3P2","4f145p3 2P°3/2",1.25,0.06,"L582"
101,"Md XXXVII",36,65,"Mendelevium","Tb","Cd4f145p3","4f145p3","2P°3/2","4f145p2 3P0",1.29,0.06,"L582"
101,"Md XXXVIII",37,64,"Mendelevium","Gd","Cd4f145p2","4f145p2","3P0","4f145p 2P°1/2",1.43,0.07,"L582"
101,"Md XXXIX",38,63,"Mendelevium","Eu","Cd4f145p","4f145p","2P°1/2","4f14 1S0",1.48,0.07,"L582"
101,"Md XL",39,62,"Mendelevium","Sm","Cd4f14","4f14","1S0","4f145s 2S1/2",1.62,0.08,"L582"
101,"Md XLI",40,61,"Mendelevium","Pm","Kr4d104f145s","4f145s","2S1/2","4f14 1S0",1.66,0.08,"L582"
101,"Md XLII",41,60,"Mendelevium","Nd","Kr4d104f14","4f14","1S0","4f13 2F°7/2",1.84,0.09,"L582"
101,"Md XLIII",42,59,"Mendelevium","Pr","Kr4d104f13","4f13","2F°7/2","4f12",1.93,0.1,"L582"
101,"Md XLIV",43,58,"Mendelevium","Ce","Kr4d104f12","4f12",NA,"4f11 4I°15/2",2.02,0.1,"L582"
101,"Md XLV",44,57,"Mendelevium","La","Kr4d104f11","4f11","4I°15/2","4f10 5I8",2.11,0.11,"L582"
101,"Md XLVI",45,56,"Mendelevium","Ba","Kr4d104f10","4f10","5I8","4f9 6H°15/2",2.2,0.11,"L582"
101,"Md XLVII",46,55,"Mendelevium","Cs","Kr4d104f9","4f9","6H°15/2","4f8 7F6",2.29,0.12,"L582"
101,"Md XLVIII",47,54,"Mendelevium","Xe","Kr4d104f8","4f8","7F6","4f7 8S°7/2",2.39,0.12,"L582"
101,"Md XLIX",48,53,"Mendelevium","I","Kr4d104f7","4f7","8S°7/2","4f6 7F0",2.48,0.12,"L582"
101,"Md L",49,52,"Mendelevium","Te","Kr4d104f6","4f6","7F0","4f5 6H°5/2",2.58,0.12,"L582"
101,"Md LI",50,51,"Mendelevium","Sb","Kr4d104f5","4f5","6H°5/2","4f4 5I4",2.68,0.14,"L582"
101,"Md LII",51,50,"Mendelevium","Sn","Kr4d104f4","4f4","5I4","4f3 4I°9/2",2.76,0.14,"L582"
101,"Md LIII",52,49,"Mendelevium","In","Kr4d104f3","4f3","4I°9/2","4f2 3H4",2.86,0.15,"L582"
101,"Md LIV",53,48,"Mendelevium","Cd","Kr4d104f2","4f2","3H4","4f 2F°5/2",2.95,0.15,"L582"
101,"Md LV",54,47,"Mendelevium","Ag","Kr4d104f","4f","2F°5/2","4d10 1S0",3.05,0.15,"L582"
101,"Md LVI",55,46,"Mendelevium","Pd","Kr4d10","4d10","1S0","4d9 2D5/2",3.513,0.005,"L8672c99"
101,"Md LVII",56,45,"Mendelevium","Rh","Kr4d9","4d9","2D5/2","4d8 3F4",3.592,0.005,"L8672c99"
101,"Md LVIII",57,44,"Mendelevium","Ru","Kr4d8","4d8","3F4","4d7 4F9/2",3.675,0.006,"L8672c99"
101,"Md LIX",58,43,"Mendelevium","Tc","Kr4d7","4d7","4F9/2","4d6 5D4",3.762,0.006,"L8672c99"
101,"Md LX",59,42,"Mendelevium","Mo","Kr4d6","4d6","5D4","4d5 5/2",3.845,0.007,"L8672c99"
101,"Md LXI",60,41,"Mendelevium","Nb","Kr4d5","4d5","5/2","4d4 5D0",3.926,0.01,"L8672c99"
101,"Md LXII",61,40,"Mendelevium","Zr","Kr4d4","4d4","5D0","4d3 4F3/2",4.109,0.012,"L8672c99"
101,"Md LXIII",62,39,"Mendelevium","Y","Kr4d3","4d3","4F3/2","4d2 3F2",4.194,0.015,"L8672c99"
101,"Md LXIV",63,38,"Mendelevium","Sr","Kr4d2","4d2","3F2","4d 2D3/2",4.286,0.019,"L8672c99"
101,"Md LXV",64,37,"Mendelevium","Rb","Kr4d","4d","2D3/2","4p6 1S0",4.371,0.024,"L8672c99"
101,"Md LXVI",65,36,"Mendelevium","Kr","Ar3d104s24p6","4p6","1S0","4p5 2P°3/2",4.72,0.03,"L8672c99"
101,"Md LXVII",66,35,"Mendelevium","Br","Ar3d104s24p5","4p5","2P°3/2","4p4 3P2",4.8,0.04,"L8672c99"
101,"Md LXVIII",67,34,"Mendelevium","Se","Ar3d104s24p4","4p4","3P2","4p3°3/2",4.89,0.04,"L8672c99"
101,"Md LXIX",68,33,"Mendelevium","As","Ar3d104s24p3","4p3","°3/2","4p2 3P0",4.97,0.05,"L8672c99"
101,"Md LXX",69,32,"Mendelevium","Ge","Ar3d104s24p2","4p2","3P0","4p 2P°1/2",5.58,0.05,"L8672c99"
101,"Md LXXI",70,31,"Mendelevium","Ga","Ar3d104s24p","4p","2P°1/2","4s2 1S0",5.68,0.06,"L8672c99"
101,"Md LXXII",71,30,"Mendelevium","Zn","Ar3d104s2","4s2","1S0","4s 2S1/2",5.93,0.06,"L8672c99"
101,"Md LXXIII",72,29,"Mendelevium","Cu","Ar3d104s","4s","2S1/2","3d10 1S0",6.03,0.07,"L8672c99"
101,"Md LXXIV",73,28,"Mendelevium","Ni","Ar3d10","3d10","1S0","3d9 2D5/2",9.43,0.09,"L8672c99"
101,"Md LXXV",74,27,"Mendelevium","Co","Ar3d9","3d9","2D5/2","3d8 3F4",9.62,0.09,"L8672c99"
101,"Md LXXVI",75,26,"Mendelevium","Fe","Ar3d8","3d8","3F4","3d7 4F9/2",9.81,0.1,"L8672c99"
101,"Md LXXVII",76,25,"Mendelevium","Mn","Ar3d7","3d7","4F9/2","3d6 4",10.02,0.11,"L8672c99"
101,"Md LXXVIII",77,24,"Mendelevium","Cr","Ar3d6","3d6","4","3d5 5/2",10.22,0.12,"L8672c99"
101,"Md LXXIX",78,23,"Mendelevium","V","Ar3d5","3d5","5/2","3d4 5D0",10.41,0.12,"L8672c99"
101,"Md LXXX",79,22,"Mendelevium","Ti","Ar3d4","3d4","5D0","3d3 4F3/2",10.93,0.14,"L8672c99"
101,"Md LXXXI",80,21,"Mendelevium","Sc","Ar3d3","3d3","4F3/2","3d2 3F2",11.13,0.15,"L8672c99"
101,"Md LXXXII",81,20,"Mendelevium","Ca","Ar3d2","3d2","3F2","3d 2D3/2",11.35,0.16,"L8672c99"
101,"Md LXXXIII",82,19,"Mendelevium","K","Ar3d","3d","2D3/2","3p6 1S0",11.56,0.17,"L8672c99"
101,"Md LXXXIV",83,18,"Mendelevium","Ar","Ne3s23p6","3p6","1S0","3p5 2P°3/2",12.13,0.19,"L8672c99"
101,"Md LXXXV",84,17,"Mendelevium","Cl","Ne3s23p5","3p5","2P°3/2","3p4 3P2",12.31,0.2,"L8672c99"
101,"Md LXXXVI",85,16,"Mendelevium","S","Ne3s23p4","3p4","3P2","3p3 2P°3/2",12.5,0.22,"L8672c99"
101,"Md LXXXVII",86,15,"Mendelevium","P","Ne3s23p3","3p3","2P°3/2","3p2 3P0",12.68,0.24,"L8672c99"
101,"Md LXXXVIII",87,14,"Mendelevium","Si","Ne3s23p2","3p2","3P0","3p 2P°1/2",14.56,0.25,"L8672c99"
101,"Md LXXXIX",88,13,"Mendelevium","Al","Ne3s23p","3p","2P°1/2","3s2 1S0",14.8,0.3,"L8672c99"
101,"Md XC",89,12,"Mendelevium","Mg","Ne3s2","3s2","1S0","3s 2S1/2",15.2,0.3,"L8672c99"
101,"Md XCI",90,11,"Mendelevium","Na","Ne3s","3s","2S1/2","2p6 1S0",15.4,0.3,"L8672c99"
101,"Md XCII",91,10,"Mendelevium","Ne","1s22s22p6","2p6","1S0","2p5 2P°3/2",31,0.3,"L8672c99"
101,"Md XCIII",92,9,"Mendelevium","F","1s22s22p5","2p5","2P°3/2","2p4 3P2",31.5,0.4,"L8672c99"
101,"Md XCIV",93,8,"Mendelevium","O","1s22s22p4","2p4","3P2","2p21/22p3/2 0,3/2°3/2",32,0.4,"L8672c99"
101,"Md XCV",94,7,"Mendelevium","N","1s22s22p3","2p21/22p3/2","0,3/2°3/2","2p2 3P0",32.5,0.4,"L8672c99"
101,"Md XCVI",95,6,"Mendelevium","C","1s22s22p2","2p2","3P0","2p 2P°1/2",39.5,0.4,"L8672c99"
101,"Md XCVII",96,5,"Mendelevium","B","1s22s22p","2p","2P°1/2","2s2 1S0",40.1,0.4,"L8672c99"
101,"Md XCVIII",97,4,"Mendelevium","Be","1s22s2","2s2","1S0","2s 2S1/2",41,0.4,"L8672c99"
101,"Md XCIX",98,3,"Mendelevium","Li","1s22s","2s","2S1/2","1s2 1S0",41.548,0.006,"L582c106"
101,"Md C",99,2,"Mendelevium","He","1s2","1s2","1S0","1s 2S1/2",NA,NA,NA
101,"Md CI",100,1,"Mendelevium","H","1s","1s","2S1/2",NA,164.764,0.006,"L7188"
102,"No I",0,102,"Nobelium","No","Rn5f147s2","7s2","1S0","5f147s 2S1/2",0.00662621,5e-08,"L20870"
102,"No II",1,101,"Nobelium","Md","Rn5f147s","5f147s","2S1/2","5f14 1S0",0.01293,4e-05,"L19691"
102,"No III",2,100,"Nobelium","Fm","Rn5f14","5f14","1S0","5f13 2F°7/2",0.0258,4e-04,"L13741c99"
102,"No IV",3,99,"Nobelium","Es","Rn5f13","5f13","2F°7/2","5f12 3H6",0.0415,4e-04,"L13741c99"
102,"No V",4,98,"Nobelium","Cf","Rn5f12","5f12","3H6","5f11 4I°15/2",0.06,0.0019,"L8672c99"
102,"No VI",5,97,"Nobelium","Bk","Rn5f11","5f11","4I°15/2","5f10 5I8",0.074,0.002,"L8672c99"
102,"No VII",6,96,"Nobelium","Cm","Rn5f10","5f10","5I8","5f9 6H°15/2",0.097,0.002,"L8672c99"
102,"No VIII",7,95,"Nobelium","Am","Rn5f9","5f9","6H°15/2","5f8 7F6",0.119,0.0021,"L8672c99"
102,"No IX",8,94,"Nobelium","Pu","Rn5f8","5f8","7F6","5f7 8S°7/2",0.14,0.0022,"L8672c99"
102,"No X",9,93,"Nobelium","Np","Rn5f7","5f7","8S°7/2","5f6 7F0",0.17,0.0022,"L8672c99"
102,"No XI",10,92,"Nobelium","U","Rn5f6","5f6","7F0","5f5 6H°5/2",0.187,0.0024,"L8672c99"
102,"No XII",11,91,"Nobelium","Pa","Rn5f5","5f5","6H°5/2","5f4 5I4",0.216,0.0025,"L8672c99"
102,"No XIII",12,90,"Nobelium","Th","Rn5f4","5f4","5I4","5f76p2",0.246,0.012,"L582"
102,"No XIV",13,89,"Nobelium","Ac","Hg5f76p2","5f76p2","°","5f76p",0.267,0.014,"L582"
102,"No XV",14,88,"Nobelium","Ra","Hg5f76p","5f76p",NA,"5f7°",0.285,0.012,"L582"
102,"No XVI",15,87,"Nobelium","Fr","Hg5f7","5f7","°","5f6",0.312,0.016,"L582"
102,"No XVII",16,86,"Nobelium","Rn","Hg5f6","5f6",NA,"5f5°",0.341,0.017,"L582"
102,"No XVIII",17,85,"Nobelium","At","Hg5f5","5f5","°","5f4",0.367,0.019,"L582"
102,"No XIX",18,84,"Nobelium","Po","Hg5f4","5f4",NA,"5f3°",0.394,0.02,"L582"
102,"No XX",19,83,"Nobelium","Bi","Hg5f3","5f3","°","5f2",0.422,0.021,"L582"
102,"No XXI",20,82,"Nobelium","Pb","Hg5f2","5f2",NA,"5f 2F°5/2",0.448,0.022,"L582"
102,"No XXII",21,81,"Nobelium","Tl","Hg5f","5f","2F°5/2","6s2 1S0",0.475,0.024,"L582"
102,"No XXIII",22,80,"Nobelium","Hg","Xe4f145d106s2","6s2","1S0","6s 2S1/2",0.496,0.004,"L8672c99"
102,"No XXIV",23,79,"Nobelium","Au","Xe4f145d106s","6s","2S1/2","5d10 1S0",0.52,0.004,"L8672c99"
102,"No XXV",24,78,"Nobelium","Pt","Xe4f145d10","5d10","1S0","5d9 2D5/2",0.701,0.004,"L8672c99"
102,"No XXVI",25,77,"Nobelium","Ir","Xe4f145d9","5d9","2D5/2","5d8 3F4",0.734,0.004,"L8672c99"
102,"No XXVII",26,76,"Nobelium","Os","Xe4f145d8","5d8","3F4","5d7 4F9/2",0.768,0.004,"L8672c99"
102,"No XXVIII",27,75,"Nobelium","Re","Xe4f145d7","5d7","4F9/2","5d6 5D4",0.805,0.004,"L8672c99"
102,"No XXIX",28,74,"Nobelium","W","Xe4f145d6","5d6","5D4","5d5 6S5/2",0.84,0.004,"L8672c99"
102,"No XXX",29,73,"Nobelium","Ta","Xe4f145d5","5d5","6S5/2","5d4 5D0",0.875,0.004,"L8672c99"
102,"No XXXI",30,72,"Nobelium","Hf","Xe4f145d4","5d4","5D0","5d3 4F3/2",0.934,0.004,"L8672c99"
102,"No XXXII",31,71,"Nobelium","Lu","Xe4f145d3","5d3","4F3/2","5d2 3F2",0.969,0.004,"L8672c99"
102,"No XXXIII",32,70,"Nobelium","Yb","Xe4f145d2","5d2","3F2","5d 2D3/2",1.01,0.004,"L8672c99"
102,"No XXXIV",33,69,"Nobelium","Tm","Xe4f145d","5d","2D3/2","4f14 1S0",1.045,0.005,"L8672c99"
102,"No XXXV",34,68,"Nobelium","Er","Xe4f14","4f14","1S0","4f145p5 2P°3/2",1.22,0.06,"L582"
102,"No XXXVI",35,67,"Nobelium","Ho","Cd4f145p5","4f145p5","2P°3/2","4f145p4 3P2",1.26,0.06,"L582"
102,"No XXXVII",36,66,"Nobelium","Dy","Cd4f145p4","4f145p4","3P2","4f145p3 2P°3/2",1.3,0.07,"L582"
102,"No XXXVIII",37,65,"Nobelium","Tb","Cd4f145p3","4f145p3","2P°3/2","4f145p2 3P0",1.35,0.07,"L582"
102,"No XXXIX",38,64,"Nobelium","Gd","Cd4f145p2","4f145p2","3P0","4f145p 2P°1/2",1.5,0.07,"L582"
102,"No XL",39,63,"Nobelium","Eu","Cd4f145p","4f145p","2P°1/2","4f14 1S0",1.55,0.08,"L582"
102,"No XLI",40,62,"Nobelium","Sm","Cd4f14","4f14","1S0","4f145s 2S1/2",1.68,0.08,"L582"
102,"No XLII",41,61,"Nobelium","Pm","Kr4d104f145s","4f145s","2S1/2","4f14 1S0",1.73,0.09,"L582"
102,"No XLIII",42,60,"Nobelium","Nd","Kr4d104f14","4f14","1S0","4f13 2F°7/2",1.92,0.1,"L582"
102,"No XLIV",43,59,"Nobelium","Pr","Kr4d104f13","4f13","2F°7/2","4f12",2.01,0.1,"L582"
102,"No XLV",44,58,"Nobelium","Ce","Kr4d104f12","4f12",NA,"4f11 4I°15/2",2.11,0.11,"L582"
102,"No XLVI",45,57,"Nobelium","La","Kr4d104f11","4f11","4I°15/2","4f10 5I8",2.2,0.11,"L582"
102,"No XLVII",46,56,"Nobelium","Ba","Kr4d104f10","4f10","5I8","4f9 6H°15/2",2.29,0.11,"L582"
102,"No XLVIII",47,55,"Nobelium","Cs","Kr4d104f9","4f9","6H°15/2","4f8 7F6",2.38,0.12,"L582"
102,"No XLIX",48,54,"Nobelium","Xe","Kr4d104f8","4f8","7F6","4f7 8S°7/2",2.47,0.12,"L582"
102,"No L",49,53,"Nobelium","I","Kr4d104f7","4f7","8S°7/2","4f6 7F0",2.57,0.12,"L582"
102,"No LI",50,52,"Nobelium","Te","Kr4d104f6","4f6","7F0","4f5 6H°5/2",2.68,0.14,"L582"
102,"No LII",51,51,"Nobelium","Sb","Kr4d104f5","4f5","6H°5/2","4f4 5I4",2.76,0.14,"L582"
102,"No LIII",52,50,"Nobelium","Sn","Kr4d104f4","4f4","5I4","4f3 4I°9/2",2.86,0.15,"L582"
102,"No LIV",53,49,"Nobelium","In","Kr4d104f3","4f3","4I°9/2","4f2 3H4",2.95,0.15,"L582"