"Z","Species","CS","Occ","Element","Iso_elec","Ground_Shells","Ground_Config","Ground_Level","Ionized_Level","IE","IE_uncertainty","References"
36,"Kr XXI",20,16,"Krypton","S","Ne3s23p4","3s23p4","3P2","3p3 4S°3/2",0.8828,0.0013,"L11770"
36,"Kr XXII",21,15,"Krypton","P","Ne3s23p3","3s23p3","4S°3/2","3p2 3P0",0.945,0.003,"L11770"
36,"Kr XXIII",22,14,"Krypton","Si","Ne3s23p2","3s23p2","3P0","3p 2P°1/2",0.999,0.0024,"L11770"
36,"Kr XXIV",23,13,"Krypton","Al","Ne3s23p","3s23p","2P°1/2","3s2 1S0",1.042,0.005,"L11770"
36,"Kr XXV",24,12,"Krypton","Mg","Ne3s2","3s2","1S0","3s 2S1/2",1.155,0.0016,"L11770"
36,"Kr XXVI",25,11,"Krypton","Na","Ne3s","3s","2S1/2","2p6 1S0",1.20523,4e-05,"L11770"
36,"Kr XXVII",26,10,"Krypton","Ne","1s22s22p6","2s22p6","1S0","2p5 2P°3/2",2.9289,0.0017,"L11770"
36,"Kr XXVIII",27,9,"Krypton","F","1s22s22p5","2s22p5","2P°3/2","2p4 3P2",3.072,0.005,"L11770"
36,"Kr XXIX",28,8,"Krypton","O","1s22s22p4","2s22p4","3P2","2p3 4S°3/2",3.228,0.007,"L11770"
36,"Kr XXX",29,7,"Krypton","N","1s22s22p3","2s22p3","4S°3/2","2p2 3P0",3.38,0.03,"L11770"
36,"Kr XXXI",30,6,"Krypton","C","1s22s22p2","2s22p2","3P0","2p 2P°1/2",3.584,0.004,"L11770"
36,"Kr XXXII",31,5,"Krypton","B","1s22s22p","2s22p","2P°1/2","2s2 1S0",3.752,0.0025,"L11770"
36,"Kr XXXIII",32,4,"Krypton","Be","1s22s2","2s2","1S0","2s 2S1/2",3.971,0.004,"L11770"
36,"Kr XXXIV",33,3,"Krypton","Li","1s22s","1s22s","2S1/2","1s2 1S0",4.109083,9e-06,"L16264c99"
36,"Kr XXXV",34,2,"Krypton","He","1s2","1s2","1S0","1s 2S1/2",17.296421,4e-06,"L12128"
36,"Kr XXXVI",35,1,"Krypton","H","1s","1s","2S1/2",NA,17.936209,1.1e-05,"L7188"
37,"Rb I",0,37,"Rubidium","Rb","Kr5s","4p65s","2S1/2","4p6 1S0",0.0041771281,1.2e-09,"L4740,L5783"
37,"Rb II",1,36,"Rubidium","Kr","Ar3d104s24p6","4p6","1S0","4p5 2P°3/2",0.02728954,6e-08,"L2590"
37,"Rb III",2,35,"Rubidium","Br","Ar3d104s24p5","4s24p5","2P°3/2","4p4 3P2",0.039247,3e-06,"L4311"
37,"Rb IV",3,34,"Rubidium","Se","Ar3d104s24p4","4s24p4","3P2","4p3 4S°3/2",0.0522,0.00025,"L9039,L6470"
37,"Rb V",4,33,"Rubidium","As","Ar3d104s24p3","4s24p3","4S°3/2","4p2 3P0",0.06844,0.00015,"L9039c99"
37,"Rb VI",5,32,"Rubidium","Ge","Ar3d104s24p2","4s24p2","3P0","4p 2P°1/2",0.0829,0.002,"L8672c99"
37,"Rb VII",6,31,"Rubidium","Ga","Ar3d104s24p","4s24p","2P°1/2","4s2 1S0",0.09867,4e-05,"L6833"
37,"Rb VIII",7,30,"Rubidium","Zn","Ar3d104s2","4s2","1S0","4s 2S1/2",0.13279,0.00025,"L9039,L6976"
37,"Rb IX",8,29,"Rubidium","Cu","Ar3d104s","3d104s","2S1/2","3d10 1S0",0.150628,2.5e-05,"L6264"
37,"Rb X",9,28,"Rubidium","Ni","Ar3d10","3d10","1S0","3d9 2D5/2",0.27712,0.00012,"L3465c99"
37,"Rb XI",10,27,"Rubidium","Co","Ar3d9","3d9","2D5/2","3d8 3F4",0.3131,0.0024,"L8672c99"
37,"Rb XII",11,26,"Rubidium","Fe","Ar3d8","3p63d8","3F4","3d7 4F9/2",0.356,0.0025,"L8672c99"
37,"Rb XIII",12,25,"Rubidium","Mn","Ar3d7","3p63d7","4F9/2","3d6 5D4",0.4,0.003,"L8672c99"
37,"Rb XIV",13,24,"Rubidium","Cr","Ar3d6","3d6","5D4","3d5 6S5/2",0.443,0.003,"L8672c99"
37,"Rb XV",14,23,"Rubidium","V","Ar3d5","3d5","6S5/2","3d4 5D0",0.502,0.003,"L8672c99"
37,"Rb XVI",15,22,"Rubidium","Ti","Ar3d4","3d4","5D0","3d3 4F3/2",0.55,0.003,"L8672c99"
37,"Rb XVII",16,21,"Rubidium","Sc","Ar3d3","3d3","4F3/2","3d2 3F2",0.601,0.003,"L8672c99"
37,"Rb XVIII",17,20,"Rubidium","Ca","Ar3d2","3d2","3F2","3d 2D3/2",0.654,0.003,"L8672c99"
37,"Rb XIX",18,19,"Rubidium","K","Ar3d","3p63d","2D3/2","3p6 1S0",0.706,0.0022,"L9039"
37,"Rb XX",19,18,"Rubidium","Ar","Ne3s23p6","3s23p6","1S0","3p5 2P°3/2",0.857,0.003,"L11770"
37,"Rb XXI",20,17,"Rubidium","Cl","Ne3s23p5","3s23p5","2P°3/2","3p4 3P2",0.9053,0.001,"L11770"
37,"Rb XXII",21,16,"Rubidium","S","Ne3s23p4","3s23p4","3P2","3p3 4S°3/2",0.9589,0.0014,"L11770"
37,"Rb XXIII",22,15,"Rubidium","P","Ne3s23p3","3s23p3","4S°3/2","3p2 3P0",1.024,0.004,"L11770"
37,"Rb XXIV",23,14,"Rubidium","Si","Ne3s23p2","3s23p2","3P0","3p 2P°1/2",1.08,0.003,"L11770"
37,"Rb XXV",24,13,"Rubidium","Al","Ne3s23p","3s23p","2P°1/2","3s2 1S0",1.125,0.005,"L11770"
37,"Rb XXVI",25,12,"Rubidium","Mg","Ne3s2","3s2","1S0","3s 2S1/2",1.2425,0.0017,"L11770"
37,"Rb XXVII",26,11,"Rubidium","Na","Ne3s","3s","2S1/2","2p6 1S0",1.29457,4e-05,"L11770"
37,"Rb XXVIII",27,10,"Rubidium","Ne","1s22s22p6","2s22p6","1S0","2p5 2P°3/2",3.1333,0.0018,"L11770"
37,"Rb XXIX",28,9,"Rubidium","F","1s22s22p5","2s22p5","2P°3/2","2p4 3P2",3.281,0.006,"L11770"
37,"Rb XXX",29,8,"Rubidium","O","1s22s22p4","2s22p4","3P2","2p3 4S°3/2",3.443,0.008,"L11770"
37,"Rb XXXI",30,7,"Rubidium","N","1s22s22p3","2s22p3","4S°3/2","2p2 3P0",3.6,0.03,"L11770"
37,"Rb XXXII",31,6,"Rubidium","C","1s22s22p2","2p2","3P0","2p 2P°1/2",3.815,0.004,"L11770"
37,"Rb XXXIII",32,5,"Rubidium","B","1s22s22p","2s22p","2P°1/2","2s2 1S0",3.988,0.003,"L11770"
37,"Rb XXXIV",33,4,"Rubidium","Be","1s22s2","2s2","1S0","2s 2S1/2",4.214,0.004,"L11770"
37,"Rb XXXV",34,3,"Rubidium","Li","1s22s","2s","2S1/2","1s2 1S0",4.356865,1e-05,"L16264c99"
37,"Rb XXXVI",35,2,"Rubidium","He","1s2","1s2","1S0","1s 2S1/2",18.305884,5e-06,"L12128"
37,"Rb XXXVII",36,1,"Rubidium","H","1s","1s","2S1/2",NA,18.965516,1.2e-05,"L7188"
38,"Sr I",0,38,"Strontium","Sr","Kr5s2","5s2","1S0","5s 2S1/2",0.00569486745,1.2e-10,"L15350,L5644"
38,"Sr II",1,37,"Strontium","Rb","Kr5s","4p65s","2S1/2","4p6 1S0",0.0110302765,2.5e-09,"L13983"
38,"Sr III",2,36,"Strontium","Kr","Ar3d104s24p6","4p6","1S0","4p5 2P°3/2",0.04288353,1.9e-07,"L1771"
38,"Sr IV",3,35,"Strontium","Br","Ar3d104s24p5","4s24p5","2P°3/2","4s24p4 3P2",0.05628,3e-06,"L4311"
38,"Sr V",4,34,"Strontium","Se","Ar3d104s24p4","4s24p4","3P2","4s24p3 4S°3/2",0.0707,6e-04,"L6378"
38,"Sr VI",5,33,"Strontium","As","Ar3d104s24p3","4s24p3","4S°3/2","4s24p2 2P0",0.088,0.002,"L8672c99"
38,"Sr VII",6,32,"Strontium","Ge","Ar3d104s24p2","4s24p2","3P0","4s24p 2P°1/2",0.104,0.002,"L8672c99"
38,"Sr VIII",7,31,"Strontium","Ga","Ar3d104s24p","4s24p","2P°1/2","4s2 1S0",0.12121,6e-05,"L6833"
38,"Sr IX",8,30,"Strontium","Zn","Ar3d104s2","4s2","1S0","4s 2S1/2",0.15833,0.00025,"L6976"
38,"Sr X",9,29,"Strontium","Cu","Ar3d104s","3d104s","2S1/2","3d10 1S0",0.1773,6e-05,"L5322"
38,"Sr XI",10,28,"Strontium","Ni","Ar3d10","3d10","1S0","3d9 2D5/2",0.32407,0.00015,"L3465c99"
38,"Sr XII",11,27,"Strontium","Co","Ar3d9","3p63d9","2D5/2","3d8 3F4",0.362,0.0025,"L8672c99"
38,"Sr XIII",12,26,"Strontium","Fe","Ar3d8","3p63d8","3F4","3d7 4F9/2",0.408,0.003,"L8672c99"
38,"Sr XIV",13,25,"Strontium","Mn","Ar3d7","3p63d7","4F9/2","3d6 5D4",0.454,0.003,"L8672c99"
38,"Sr XV",14,24,"Strontium","Cr","Ar3d6","3d6","5D4","3d5 6S5/2",0.499,0.003,"L8672c99"
38,"Sr XVI",15,23,"Strontium","V","Ar3d5","3d5","6S5/2","3d4 5D0",0.562,0.003,"L8672c99"
38,"Sr XVII",16,22,"Strontium","Ti","Ar3d4","3d4","5D0","3d3 4F3/2",0.612,0.003,"L8672c99"
38,"Sr XVIII",17,21,"Strontium","Sc","Ar3d3","3d3","4F3/2","3d2 3F2",0.665,0.003,"L8672c99"
38,"Sr XIX",18,20,"Strontium","Ca","Ar3d2","3d2","3F2","3d 2D3/2",0.722,0.003,"L8672c99"
38,"Sr XX",19,19,"Strontium","K","Ar3d","3p63d","2D3/2","3p6 1S0",0.774,0.004,"L8672c99"
38,"Sr XXI",20,18,"Strontium","Ar","Ne3s23p6","3p6","1S0","3p5 2P°3/2",0.932,0.003,"L11770"
38,"Sr XXII",21,17,"Strontium","Cl","Ne3s23p5","3p5","2P°3/2","3p4 3P2",0.9821,0.0011,"L11770"
38,"Sr XXIII",22,16,"Strontium","S","Ne3s23p4","3p4","3P2","3p3 4S°3/2",1.038,0.0015,"L11770"
38,"Sr XXIV",23,15,"Strontium","P","Ne3s23p3","3p3","4S°3/2","3p2 3P0",1.105,0.004,"L11770"
38,"Sr XXV",24,14,"Strontium","Si","Ne3s23p2","3s23p2","3P0","3p 2P°1/2",1.165,0.003,"L11770"
38,"Sr XXVI",25,13,"Strontium","Al","Ne3s23p","3s23p","2P°1/2","3s2 1S0",1.211,0.006,"L11770"
38,"Sr XXVII",26,12,"Strontium","Mg","Ne3s2","3s2","1S0","3s 2S1/2",1.3334,0.0019,"L11770"
38,"Sr XXVIII",27,11,"Strontium","Na","Ne3s","2p63s","2S1/2","2p6 1S0",1.38719,5e-05,"L11770"
38,"Sr XXIX",28,10,"Strontium","Ne","1s22s22p6","2s22p6","1S0","2p5 2P°3/2",3.3447,0.0019,"L11770"
38,"Sr XXX",29,9,"Strontium","F","1s22s22p5","2s22p5","2P°3/2","2p4 3P2",3.497,0.006,"L11770"
38,"Sr XXXI",30,8,"Strontium","O","1s22s22p4","2s22p4","3P2","2p3 4S°3/2",3.664,0.008,"L11770"
38,"Sr XXXII",31,7,"Strontium","N","1s22s22p3","2s22p3","4S°3/2","2s22p2 3P0",3.83,0.03,"L11770"
38,"Sr XXXIII",32,6,"Strontium","C","1s22s22p2","2s22p2","3P0","2s22p 2P°1/2",4.053,0.004,"L11770"
38,"Sr XXXIV",33,5,"Strontium","B","1s22s22p","2s22p","2P°1/2","2s2 1S0",4.232,0.003,"L11770"
38,"Sr XXXV",34,4,"Strontium","Be","1s22s2","2s2","1S0","2s 2S1/2",4.465,0.004,"L11770"
38,"Sr XXXVI",35,3,"Strontium","Li","1s22s","2s","2S1/2","1s2 1S0",4.612397,1.1e-05,"L16264c99"
38,"Sr XXXVII",36,2,"Strontium","He","1s2","1s2","1S0","1s 2S1/2",19.345588,5e-06,"L12128"
38,"Sr XXXVIII",37,1,"Strontium","H","1s","1s","2S1/2",NA,20.025233,1.2e-05,"L7188"
39,"Y I",0,39,"Yttrium","Y","Kr4d5s2","4d5s2","2D3/2","5s2 1S0",0.00621726,1e-07,"L8844,L2111,L9735"
39,"Y II",1,38,"Yttrium","Sr","Kr5s2","5s2","1S0","4d 2D3/2",0.0122236,6e-07,"L10987"
39,"Y III",2,37,"Yttrium","Rb","Kr4d","4p64d","2D3/2","4p6 1S0",0.02052441,1.2e-07,"L2592"
39,"Y IV",3,36,"Yttrium","Kr","Ar3d104s24p6","4p6","1S0","4p5 2P°3/2",0.0606072,2.5e-06,"L5501"
39,"Y V",4,35,"Yttrium","Br","Ar3d104s24p5","4s24p5","2P°3/2","4p4 3P2",0.07535,4e-05,"L19755"
39,"Y VI",5,34,"Yttrium","Se","Ar3d104s24p4","4p4","3P2","4p3 4S°3/2",0.09139,2.5e-05,"L6821"
39,"Y VII",6,33,"Yttrium","As","Ar3d104s24p3","4s24p3","4S°3/2","4p2 3P0",0.11002,0.00015,"L5287"
39,"Y VIII",7,32,"Yttrium","Ge","Ar3d104s24p2","4s24p2","3P0","4p 2P°1/2",0.12812,6e-05,"L20835"
39,"Y IX",8,31,"Yttrium","Ga","Ar3d104s24p","4p","2P°1/2","4s2 1S0",0.14564,4e-05,"L6833"
39,"Y X",9,30,"Yttrium","Zn","Ar3d104s2","4s2","1S0","4s 2S1/2",0.1857,4e-04,"L6976"
39,"Y XI",10,29,"Yttrium","Cu","Ar3d104s","4s","2S1/2","3d10 1S0",0.205814,2.5e-05,"L4899"
39,"Y XII",11,28,"Yttrium","Ni","Ar3d10","3d10","1S0","3d9 2D5/2",0.37404,0.00025,"L3465c99"
39,"Y XIII",12,27,"Yttrium","Co","Ar3d9","3p63d9","2D5/2","3d8 3F4",0.414,0.003,"L8672c99"
39,"Y XIV",13,26,"Yttrium","Fe","Ar3d8","3d8","3F4","3d7 4F9/2",0.463,0.003,"L8672c99"
39,"Y XV",14,25,"Yttrium","Mn","Ar3d7","3d7","4F9/2","3d6 5D4",0.512,0.003,"L8672c99"
39,"Y XVI",15,24,"Yttrium","Cr","Ar3d6","3d6","5D4","3d5 6S5/2",0.559,0.003,"L8672c99"
39,"Y XVII",16,23,"Yttrium","V","Ar3d5","3d5","6S5/2","3d4 5D0",0.624,0.003,"L8672c99"
39,"Y XVIII",17,22,"Yttrium","Ti","Ar3d4","3d4","5D0","3d3 4F3/2",0.677,0.003,"L8672c99"
39,"Y XIX",18,21,"Yttrium","Sc","Ar3d3","3d3","4F3/2","3d2 3F2",0.733,0.003,"L8672c99"
39,"Y XX",19,20,"Yttrium","Ca","Ar3d2","3d2","3F2","3d 2D3/2",0.79,0.004,"L8672c99"
39,"Y XXI",20,19,"Yttrium","K","Ar3d","3d","2D3/2","3p6 1S0",0.847,0.004,"L8672c99"
39,"Y XXII",21,18,"Yttrium","Ar","Ne3s23p6","3p6","1S0","3p5 2P°3/2",1.01,0.003,"L11770"
39,"Y XXIII",22,17,"Yttrium","Cl","Ne3s23p5","3p5","2P°3/2","3p4 3P2",1.0619,0.0012,"L11770"
39,"Y XXIV",23,16,"Yttrium","S","Ne3s23p4","3p4","3P2","3p3 4S°3/2",1.1202,0.0016,"L11770"
39,"Y XXV",24,15,"Yttrium","P","Ne3s23p3","3p3","4S°3/2","3p2 3P0",1.19,0.004,"L11770"
39,"Y XXVI",25,14,"Yttrium","Si","Ne3s23p2","3p2","3P0","3p 2P°1/2",1.253,0.003,"L11770"
39,"Y XXVII",26,13,"Yttrium","Al","Ne3s23p","3p","2P°1/2","3s2 1S0",1.3,0.006,"L11770"
39,"Y XXVIII",27,12,"Yttrium","Mg","Ne3s2","3s2","1S0","3s 2S1/2",1.4276,0.002,"L11770"
39,"Y XXIX",28,11,"Yttrium","Na","Ne3s","3s","2S1/2","2p6 1S0",1.48312,5e-05,"L11770"
39,"Y XXX",29,10,"Yttrium","Ne","1s22s22p6","2p6","1S0","2p5 2P°3/2",3.5629,0.002,"L11770"
39,"Y XXXI",30,9,"Yttrium","F","1s22s22p5","2p5","2P°3/2","2p4 3P2",3.72,0.006,"L11770"
39,"Y XXXII",31,8,"Yttrium","O","1s22s22p4","2p4","3P2","2p21/22p3/2 0,3/2°3/2",3.892,0.008,"L11770"
39,"Y XXXIII",32,7,"Yttrium","N","1s22s22p3","2p21/22p3/2","0,3/2°3/2","2p2 3P0",4.06,0.03,"L11770"
39,"Y XXXIV",33,6,"Yttrium","C","1s22s22p2","2p2","3P0","2p 2P°1/2",4.299,0.005,"L11770"
39,"Y XXXV",34,5,"Yttrium","B","1s22s22p","2p","2P°1/2","2s2 1S0",4.484,0.003,"L11770"
39,"Y XXXVI",35,4,"Yttrium","Be","1s22s2","2s2","1S0","2s 2S1/2",4.724,0.005,"L11770"
39,"Y XXXVII",36,3,"Yttrium","Li","1s22s","2s","2S1/2","1s2 1S0",4.875731,1.2e-05,"L16264c99"
39,"Y XXXVIII",37,2,"Yttrium","He","1s2","1s2","1S0","1s 2S1/2",20.415717,6e-06,"L12128"
39,"Y XXXIX",38,1,"Yttrium","H","1s","1s","2S1/2",NA,21.11555,1.2e-05,"L7188"
40,"Zr I",0,40,"Zirconium","Zr","Kr4d25s2","4d25s2","3F2","4d25s 4F3/2",0.006634126,5e-09,"L21107"
40,"Zr II",1,39,"Zirconium","Y","Kr4d25s","4d23F5s","4F3/2","4d2 3F2",0.01313,NA,"L272"
40,"Zr III",2,38,"Zirconium","Sr","Kr4d2","4d2","3F2","4d 2D3/2",0.02317,4e-06,"L9267"
40,"Zr IV",3,37,"Zirconium","Rb","Kr4d","4p64d","2D3/2","4p6 1S0",0.03441836,6e-08,"L11645"
40,"Zr V",4,36,"Zirconium","Kr","Ar3d104s24p6","4p6","1S0","4p5 2P°3/2",0.080348,7e-06,"L4594"
40,"Zr VI",5,35,"Zirconium","Br","Ar3d104s24p5","4s24p5","2P°3/2","4p4 3P2",0.09638,4e-05,"L19460"
40,"Zr VII",6,34,"Zirconium","Se","Ar3d104s24p4","4p4","3P2","4p3 4S°3/2",0.112,0.002,"L8672c99"
40,"Zr VIII",7,33,"Zirconium","As","Ar3d104s24p3","4p3","4S°3/2","4p2 3P0",0.1337,5e-04,"L5287"
40,"Zr IX",8,32,"Zirconium","Ge","Ar3d104s24p2","4p2","3P0","4p 2P°1/2",0.153,0.0022,"L8672c99"
40,"Zr X",9,31,"Zirconium","Ga","Ar3d104s24p","4p","2P°1/2","4s2 1S0",0.17202,5e-05,"L6833"
40,"Zr XI",10,30,"Zirconium","Zn","Ar3d104s2","4s2","1S0","4s 2S1/2",0.2149,4e-04,"L6976"
40,"Zr XII",11,29,"Zirconium","Cu","Ar3d104s","4s","2S1/2","3d10 1S0",0.236252,2.5e-05,"L4917"
40,"Zr XIII",12,28,"Zirconium","Ni","Ar3d10","3d10","1S0","3d9 2D5/2",0.426,0.003,"L8672c99"
40,"Zr XIV",13,27,"Zirconium","Co","Ar3d9","3p63d9","2D5/2","3d8 3F4",0.47,0.003,"L8672c99"
40,"Zr XV",14,26,"Zirconium","Fe","Ar3d8","3d8","3F4","3d7 4F9/2",0.52,0.003,"L8672c99"
40,"Zr XVI",15,25,"Zirconium","Mn","Ar3d7","3d7","4F9/2","3d6 5D4",0.573,0.003,"L8672c99"
40,"Zr XVII",16,24,"Zirconium","Cr","Ar3d6","3d6","5D4","3d5 6S5/2",0.622,0.003,"L8672c99"
40,"Zr XVIII",17,23,"Zirconium","V","Ar3d5","3d5","6S5/2","3d4 5D0",0.69,0.003,"L8672c99"
40,"Zr XIX",18,22,"Zirconium","Ti","Ar3d4","3d4","5D0","3d3 4F3/2",0.745,0.003,"L8672c99"
40,"Zr XX",19,21,"Zirconium","Sc","Ar3d3","3d3","4F3/2","3d2 3F2",0.803,0.004,"L8672c99"
40,"Zr XXI",20,20,"Zirconium","Ca","Ar3d2","3d2","3F2","3d 2D3/2",0.863,0.004,"L8672c99"
40,"Zr XXII",21,19,"Zirconium","K","Ar3d","3d","2D3/2","3p6 1S0",0.922,0.004,"L8672c99"
40,"Zr XXIII",22,18,"Zirconium","Ar","Ne3s23p6","3p6","1S0","3p5 2P°3/2",1.092,0.003,"L11770"
40,"Zr XXIV",23,17,"Zirconium","Cl","Ne3s23p5","3p5","2P°3/2","3p4 3P2",1.1447,0.0012,"L11770"
40,"Zr XXV",24,16,"Zirconium","S","Ne3s23p4","3p4","3P2","3p3 4S°3/2",1.2054,0.0017,"L11770"
40,"Zr XXVI",25,15,"Zirconium","P","Ne3s23p3","3p3","4S°3/2","3p2 3P0",1.277,0.005,"L11770"
40,"Zr XXVII",26,14,"Zirconium","Si","Ne3s23p2","3p2","3P0","3p 2P°1/2",1.344,0.003,"L11770"
40,"Zr XXVIII",27,13,"Zirconium","Al","Ne3s23p","3p","2P°1/2","3s2 1S0",1.392,0.007,"L11770"
40,"Zr XXIX",28,12,"Zirconium","Mg","Ne3s2","3s2","1S0","3s 2S1/2",1.5251,0.0022,"L11770"
40,"Zr XXX",29,11,"Zirconium","Na","Ne3s","3s","2S1/2","2p6 1S0",1.58237,5e-05,"L11770"
40,"Zr XXXI",30,10,"Zirconium","Ne","1s22s22p6","2p6","1S0","2p5 2P°3/2",3.788,0.0021,"L11770"
40,"Zr XXXII",31,9,"Zirconium","F","1s22s22p5","2p5","2P°3/2","2p4 3P2",3.95,0.007,"L11770"
40,"Zr XXXIII",32,8,"Zirconium","O","1s22s22p4","2p4","3P2","2p21/22p3/2 0,3/2°3/2",4.127,0.009,"L11770"
40,"Zr XXXIV",33,7,"Zirconium","N","1s22s22p3","2p21/22p3/2","0,3/2°3/2","2p2 3P0",4.3,0.03,"L11770"
40,"Zr XXXV",34,6,"Zirconium","C","1s22s22p2","2p2","3P0","2p 2P°1/2",4.553,0.005,"L11770"
40,"Zr XXXVI",35,5,"Zirconium","B","1s22s22p","2p","2P°1/2","2s2 1S0",4.744,0.003,"L11770"
40,"Zr XXXVII",36,4,"Zirconium","Be","1s22s2","2s2","1S0","2s 2S1/2",4.991,0.005,"L11770"
40,"Zr XXXVIII",37,3,"Zirconium","Li","1s22s","2s","2S1/2","1s2 1S0",5.146935,1.4e-05,"L16264c99"
40,"Zr XXXIX",38,2,"Zirconium","He","1s2","1s2","1S0","1s 2S1/2",21.516469,6e-06,"L12128"
40,"Zr XL",39,1,"Zirconium","H","1s","1s","2S1/2",NA,22.236678,1.2e-05,"L7188"
41,"Nb I",0,41,"Niobium","Nb","Kr4d45s","4d45D5s","6D1/2","4d4 5D0",0.00675885,4e-08,"L6829"
41,"Nb II",1,40,"Niobium","Zr","Kr4d4","4d4","5D0","4d3 4F3/2",0.01432,NA,"L3466"
41,"Nb III",2,39,"Niobium","Y","Kr4d3","4d3","4F3/2","4d2 3F2",0.02504,NA,"L17276"
41,"Nb IV",3,38,"Niobium","Sr","Kr4d2","4d2","3F2","4d 2D3/2",0.037611,2.2e-05,"L12094"
41,"Nb V",4,37,"Niobium","Rb","Kr4d","4p64d","2D3/2","4p6 1S0",0.0505728,2.5e-06,"L5437"
41,"Nb VI",5,36,"Niobium","Kr","Ar3d104s24p6","4p6","1S0","4p5 2P°3/2",0.102069,6e-06,"L11271"
41,"Nb VII",6,35,"Niobium","Br","Ar3d104s24p5","4p5","2P°3/2","4p4 3P2",0.1191,4e-04,"L2933"
41,"Nb VIII",7,34,"Niobium","Se","Ar3d104s24p4","4p4","3P2","4p3 4S°3/2",0.136,0.0021,"L8672c99"
41,"Nb IX",8,33,"Niobium","As","Ar3d104s24p3","4p3","4S°3/2","4p2 3P0",0.1592,7e-04,"L5287"
41,"Nb X",9,32,"Niobium","Ge","Ar3d104s24p2","4p2","3P0","4p 2P°1/2",0.18,0.0022,"L8672c99"
41,"Nb XI",10,31,"Niobium","Ga","Ar3d104s24p","4p","2P°1/2","4s2 1S0",0.20028,6e-05,"L6833"
41,"Nb XII",11,30,"Niobium","Zn","Ar3d104s2","4s2","1S0","4s 2S1/2",0.2461,4e-04,"L6976"
41,"Nb XIII",12,29,"Niobium","Cu","Ar3d104s","4s","2S1/2","3d10 1S0",0.26859,4e-05,"L4998"
41,"Nb XIV",13,28,"Niobium","Ni","Ar3d10","3d10","1S0","3d9 2D5/2",0.4825,0.0015,"L10191"
41,"Nb XV",14,27,"Niobium","Co","Ar3d9","3p63d9","2D5/2","3d8 3F4",0.53,0.003,"L8672c99"
41,"Nb XVI",15,26,"Niobium","Fe","Ar3d8","3d8","3F4","3d7 4F9/2",0.581,0.003,"L8672c99"
41,"Nb XVII",16,25,"Niobium","Mn","Ar3d7","3d7","4F9/2","3d6 5D4",0.636,0.003,"L8672c99"
41,"Nb XVIII",17,24,"Niobium","Cr","Ar3d6","3d6","5D4","3d5 6S5/2",0.688,0.003,"L8672c99"
41,"Nb XIX",18,23,"Niobium","V","Ar3d5","3d5","6S5/2","3d4 5D0",0.758,0.003,"L8672c99"
41,"Nb XX",19,22,"Niobium","Ti","Ar3d4","3d4","5D0","3d3 4F3/2",0.816,0.004,"L8672c99"
41,"Nb XXI",20,21,"Niobium","Sc","Ar3d3","3d3","4F3/2","3d2 3F2",0.877,0.004,"L8672c99"
41,"Nb XXII",21,20,"Niobium","Ca","Ar3d2","3d2","3F2","3d 2D3/2",0.94,0.004,"L8672c99"
41,"Nb XXIII",22,19,"Niobium","K","Ar3d","3d","2D3/2","3p6 1S0",1,0.004,"L8672c99"
41,"Nb XXIV",23,18,"Niobium","Ar","Ne3s23p6","3p6","1S0","3p5 2P°3/2",1.176,0.004,"L11770"
41,"Nb XXV",24,17,"Niobium","Cl","Ne3s23p5","3p5","2P°3/2","3p4 3P2",1.2306,0.0013,"L11770"
41,"Nb XXVI",25,16,"Niobium","S","Ne3s23p4","3p4","3P2","3p3 4S°3/2",1.2937,0.0018,"L11770"
41,"Nb XXVII",26,15,"Niobium","P","Ne3s23p3","3p3","4S°3/2","3p2 3P0",1.368,0.005,"L11770"
41,"Nb XXVIII",27,14,"Niobium","Si","Ne3s23p2","3p2","3P0","3p 2P°1/2",1.439,0.003,"L11770"
41,"Nb XXIX",28,13,"Niobium","Al","Ne3s23p","3p","2P°1/2","3s2 1S0",1.488,0.007,"L11770"
41,"Nb XXX",29,12,"Niobium","Mg","Ne3s2","3s2","1S0","3s 2S1/2",1.6259,0.0023,"L11770"
41,"Nb XXXI",30,11,"Niobium","Na","Ne3s","3s","2S1/2","2p6 1S0",1.68497,5e-05,"L11770"
41,"Nb XXXII",31,10,"Niobium","Ne","1s22s22p6","2p6","1S0","2p5 2P°3/2",4.0201,0.0022,"L11770"
41,"Nb XXXIII",32,9,"Niobium","F","1s22s22p5","2p5","2P°3/2","2p4 3P2",4.187,0.007,"L11770"
41,"Nb XXXIV",33,8,"Niobium","O","1s22s22p4","2p4","3P2","2p21/22p3/2 0,3/2°3/2",4.369,0.009,"L11770"
41,"Nb XXXV",34,7,"Niobium","N","1s22s22p3","2p21/22p3/2","0,3/2°3/2","2p2 3P0",4.54,0.03,"L11770"
41,"Nb XXXVI",35,6,"Niobium","C","1s22s22p2","2p2","3P0","2p 2P°1/2",4.815,0.005,"L11770"
41,"Nb XXXVII",36,5,"Niobium","B","1s22s22p","2p","2P°1/2","2s2 1S0",5.011,0.004,"L11770"
41,"Nb XXXVIII",37,4,"Niobium","Be","1s22s2","2s2","1S0","2s 2S1/2",5.265,0.005,"L11770"
41,"Nb XXXIX",38,3,"Niobium","Li","1s22s","2s","2S1/2","1s2 1S0",5.426066,1.5e-05,"L16264c99"
41,"Nb XL",39,2,"Niobium","He","1s2","1s2","1S0","1s 2S1/2",22.648046,6e-06,"L12128"
41,"Nb XLI",40,1,"Niobium","H","1s","1s","2S1/2",NA,23.388801,1.2e-05,"L7188"
42,"Mo I",0,42,"Molybdenum","Mo","Kr4d55s","4d56S5s","7S3","4d5 6S5/2",0.00709243,4e-08,"L6829"
42,"Mo II",1,41,"Molybdenum","Nb","Kr4d5","4d5","6S5/2","4d4 5D0",0.01616,0.00012,"L10502,L17501"
42,"Mo III",2,40,"Molybdenum","Zr","Kr4d4","4d4","5D0","4d3 4F3/2",0.02713,0.00012,"L10502,L17276"
42,"Mo IV",3,39,"Molybdenum","Y","Kr4d3","4d3","4F3/2","4d2 3F2",0.04033,6e-05,"L10804,L10371"